
 Working directory              : /home/jovyan/scratch/molpro.AxBc5CHijI/
 Global scratch directory       : /home/jovyan/scratch/molpro.AxBc5CHijI/
 Wavefunction directory         : /home/jovyan/wfu/
 Main file repository           : /home/jovyan/scratch/molpro.AxBc5CHijI/

 id        : cardiff

 Nodes                nprocs
 jupyter-c-2efrancisan    1
 GA implementation: MPI file
 GA implementation (serial work in mppx): MPI file

 Using customized tuning parameters: mindgm=1; mindgv=20; mindgc=4; mindgr=1; noblas=0; minvec=7
 default implementation of scratch files=df  


 Variables initialized (1031), CPU time= 0.01 sec
 
 
 
 geometry={
 16
  C    -1.5509383   -0.3046782    0.7974216
  C    -2.9173600   -0.2572608    0.4520777
  C    -3.1153913    0.0500720   -0.8576504
  S    -1.6397192    0.3001116   -1.6704985
  C    -0.7216777   -0.0254094   -0.2541573
  C     0.7216777    0.0254094   -0.2541573
  S     1.6397192   -0.3001116   -1.6704985
  C     3.1153913   -0.0500720   -0.8576504
  C     2.9173600    0.2572608    0.4520777
  C     1.5509383    0.3046782    0.7974216
  H    -1.1822260   -0.5588506    1.7767451
  H    -3.7197698   -0.4531472    1.1427536
  H    -4.0457132    0.1435962   -1.3858704
  H     4.0457132   -0.1435962   -1.3858704
  H     3.7197698    0.4531472    1.1427536
  H     1.1822260    0.5588506    1.7767451
 }
 basis=cc-pVDZ
 angstrom
 
 
 hf; papt;mp4
 
 
 
 {put,xml;noorbitals,nobasis}
 Commands initialized (841), CPU time= 0.01 sec, 704 directives.
 Default parameters read. Elapsed time= 0.08 sec

 Checking input...
 Passed
1


                                         ***  PROGRAM SYSTEM MOLPRO  ***
                                       Copyright, TTI GmbH Stuttgart, 2015
                                    Version 2023.1 linked Mon Jun  5 13:27:10 2023


 **********************************************************************************************************************************
 LABEL *                                                                                                                                                                 
  (16 PROC) 64 bit serial version                                                        DATE: 03-Aug-23          TIME: 22:39:07  
 **********************************************************************************************************************************

 SHA1:             9738a14712571edd23541b6d7c4f3a3d766f8287
 **********************************************************************************************************************************

 Memory per process:       805 MW
 Total memory per node:   1074 MW
 Total GA space:           268 MW

 GA preallocation disabled
 GA check enabled

 Geometry recognized as XYZ


 Variable memory set to 805.3 MW

 SETTING BASIS          =    CC-PVDZ


 Recomputing integrals since basis changed


 Using spherical harmonics

 Library entry C      S cc-pVDZ              selected for orbital group  1
 Library entry C      P cc-pVDZ              selected for orbital group  1
 Library entry C      D cc-pVDZ              selected for orbital group  1
 Library entry S      S cc-pVDZ              selected for orbital group  2
 Library entry S      P cc-pVDZ              selected for orbital group  2
 Library entry S      D cc-pVDZ              selected for orbital group  2
 Library entry H      S cc-pVDZ              selected for orbital group  4
 Library entry H      P cc-pVDZ              selected for orbital group  4


 PROGRAM * SEWARD (Integral evaluation for generally contracted gaussian basis sets)     Author: Roland Lindh, 1990

 Geometry written to block  1 of record 700


 Point group  C2  



 ATOMIC COORDINATES

 NR  ATOM    CHARGE       X              Y              Z

   1  C       6.00   -2.930848623   -0.575758354    1.506908430
   2  C       6.00    2.930848623    0.575758354    1.506908430
   3  C       6.00   -5.513011407   -0.486152455    0.854303040
   4  C       6.00    5.513011407    0.486152455    0.854303040
   5  C       6.00   -5.887236328    0.094622367   -1.620724367
   6  C       6.00    5.887236328   -0.094622367   -1.620724367
   7  S      16.00   -3.098620209    0.567128731   -3.156784657
   8  S      16.00    3.098620209   -0.567128731   -3.156784657
   9  C       6.00   -1.363773203   -0.048016807   -0.480287690
  10  C       6.00    1.363773203    0.048016807   -0.480287690
  11  H       1.00   -2.234083357   -1.056074579    3.357561632
  12  H       1.00    2.234083357    1.056074579    3.357561632
  13  H       1.00   -7.029346169   -0.856324102    2.159491332
  14  H       1.00    7.029346169    0.856324102    2.159491332
  15  H       1.00   -7.645289927    0.271357491   -2.618915500
  16  H       1.00    7.645289927   -0.271357491   -2.618915500

 Bond lengths in Bohr (Angstrom)

  1- 3  2.664861658   1- 9  2.585185666   1-11  2.034969972   2- 4  2.664861658   2-10  2.585185666
       ( 1.410184059)       ( 1.368021341)       ( 1.076859734)       ( 1.410184059)       ( 1.368021341)

  2-12  2.034969972   3- 5  2.569650628   3-13  2.034653444   4- 6  2.569650628   4-14  2.034653444
       ( 1.076859734)       ( 1.359800552)       ( 1.076692234)       ( 1.359800552)       ( 1.076692234)

  5- 7  3.218559202   5-15  2.029377564   6- 8  3.218559202   6-16  2.029377564   7- 9  3.248343298
       ( 1.703188182)       ( 1.073900359)       ( 1.703188182)       ( 1.073900359)       ( 1.718949246)

  8-10  3.248343298   9-10  2.729236497
       ( 1.718949246)       ( 1.444249757)

 Bond angles

  1- 3- 5  112.61815700   1- 3-13  123.98085311   1- 9- 7  110.38229586   1- 9-10  127.80550087

  2- 4- 6  112.61815700   2- 4-14  123.98085311   2-10- 8  110.38229586   2-10- 9  127.80550087

  3- 1- 9  113.09481155   3- 1-11  124.22321755   3- 5- 7  111.51091915   3- 5-15  128.28716095

  4- 2-10  113.09481155   4- 2-12  124.22321755   4- 6- 8  111.51091915   4- 6-16  128.28716095

  5- 3-13  123.39747657   5- 7- 9   92.38953509   6- 4-14  123.39747657   6- 8-10   92.38953509

  7- 5-15  120.20187923   7- 9-10  121.80818252   8- 6-16  120.20187923   8-10- 9  121.80818252

  9- 1-11  122.66282548  10- 2-12  122.66282548

 NUCLEAR CHARGE:                   86
 NUMBER OF PRIMITIVE AOS:         342
 NUMBER OF SYMMETRY AOS:          332
 NUMBER OF CONTRACTIONS:          178   (   89A   +   89B   )
 NUMBER OF INNER CORE ORBITALS:     2   (    1A   +    1B   )
 NUMBER OF OUTER CORE ORBITALS:    16   (    8A   +    8B   )
 NUMBER OF VALENCE ORBITALS:       46   (   23A   +   23B   )


 NUCLEAR REPULSION ENERGY  639.94940090

 Eigenvalues of metric

         1 0.795E-03 0.238E-02 0.439E-02 0.509E-02 0.124E-01 0.173E-01 0.196E-01 0.210E-01
         2 0.444E-03 0.777E-03 0.241E-02 0.287E-02 0.418E-02 0.999E-02 0.160E-01 0.188E-01


 Contracted 2-electron integrals neglected if value below      1.0D-11
 AO integral compression algorithm  1   Integral accuracy      1.0D-11

     302.252 MB (compressed) written to integral file ( 50.7%)


 NUMBER OF SORTED TWO-ELECTRON INTEGRALS:   64164105.     BUFFER LENGTH:  32768
 NUMBER OF SEGMENTS:   5  SEGMENT LENGTH:   15996036      RECORD LENGTH: 524288

 Memory used in sort:      16.55 MW

 SORT1 READ    74413048. AND WROTE    63644660. INTEGRALS IN    185 RECORDS. CPU TIME:     1.06 SEC, REAL TIME:     1.70 SEC
 SORT2 READ    63644660. AND WROTE    64164105. INTEGRALS IN   1153 RECORDS. CPU TIME:     1.44 SEC, REAL TIME:     1.81 SEC

 FILE SIZES:   FILE 1:   333.3 MBYTE,  FILE 4:   776.0 MBYTE,   TOTAL:   1109.3 MBYTE

 OPERATOR DM      FOR CENTER  0  COORDINATES:    0.000000    0.000000    0.000000


 **********************************************************************************************************************************
 DATASETS  * FILE   NREC   LENGTH (MB)   RECORD NAMES
              1      19      285.97       500      610      700      900      950      970     1000      129      960     1100   
                                          VAR    BASINP    GEOM    SYMINP    ZMAT    AOBASIS   BASIS     P2S    ABASIS      S 
                                         1400     1410     1200     1210     1080     1600     1650     1300     1700   
                                           T        V       H0       H01     AOSYM     SMH    MOLCAS    ERIS     OPER   

 PROGRAMS   *        TOTAL       INT
 CPU TIMES  *        13.67     13.53
 REAL TIME  *        16.39 SEC
 DISK USED  *         1.03 GB
 **********************************************************************************************************************************


 Program * Restricted Hartree-Fock

 Orbital guess generated from atomic densities. Full valence occupancy:   32  32

 Initial occupancy:  22  21

 NELEC=   86   SYM=1   MS2= 0   THRE=1.0D-08   THRD=3.2D-06   THRG=3.2D-06  HFMA2=F  DIIS_START=2   DIIS_MAX=10   DIIS_INCORE=F

 Level shifts:    0.00 (CLOSED)    0.00 (OPEN)    0.30 (GAP_MIN)

 ITER           ETOT              DE          GRAD        DDIFF     DIIS  NEXP   TIME(IT)  TIME(TOT)  DIAG
   1    -1101.36732130   -1101.36732130     0.00D+00     0.14D+00     0     0       0.43      0.84    start
   2    -1101.45323934      -0.08591804     0.50D-02     0.13D-01     1     0       0.42      1.26    diag
   3    -1101.48250375      -0.02926441     0.31D-02     0.62D-02     2     0       0.44      1.70    diag
   4    -1101.48623900      -0.00373525     0.77D-03     0.23D-02     3     0       0.43      2.13    diag
   5    -1101.48653273      -0.00029373     0.22D-03     0.51D-03     4     0       0.42      2.55    diag
   6    -1101.48664132      -0.00010859     0.11D-03     0.30D-03     5     0       0.42      2.97    diag
   7    -1101.48667263      -0.00003131     0.45D-04     0.20D-03     6     0       0.42      3.39    diag
   8    -1101.48667534      -0.00000272     0.15D-04     0.60D-04     7     0       0.43      3.82    fixocc
   9    -1101.48667556      -0.00000021     0.48D-05     0.19D-04     8     0       0.43      4.25    diag
  10    -1101.48667557      -0.00000001     0.99D-06     0.34D-05     9     0       0.44      4.69    diag/orth
  11    -1101.48667557      -0.00000000     0.42D-06     0.12D-05     9     0       0.42      5.11    diag
  12    -1101.48667557      -0.00000000     0.14D-06     0.36D-06     0     0       0.43      5.54    diag

 Final occupancy:  22  21

 !RHF STATE 1.1 Energy              -1101.486675566469
  RHF One-electron energy           -2785.132134862296
  RHF Two-electron energy            1043.696058396667
  RHF Kinetic energy                 1101.751348424179
  RHF Nuclear energy                  639.949400899159
  RHF Virial quotient                  -0.999759770788

 !RHF STATE 1.1 Dipole moment           0.00000000     0.00000000     0.48129729
 Dipole moment /Debye                   0.00000000     0.00000000     1.22333568

 Orbital energies:

           1.1          2.1          3.1          4.1          5.1          6.1          7.1          8.1          9.1         10.1
    -91.980762   -11.276730   -11.264281   -11.242222   -11.240872    -8.985748    -6.667347    -6.666300    -6.664362    -1.201628

          11.1         12.1         13.1         14.1         15.1         16.1         17.1         18.1         19.1         20.1
     -1.039525    -1.001109    -0.810235    -0.778065    -0.708083    -0.575996    -0.569298    -0.540505    -0.513100    -0.485187

          21.1         22.1         23.1         24.1
     -0.346529    -0.284360     0.155625     0.175069

           1.2          2.2          3.2          4.2          5.2          6.2          7.2          8.2          9.2         10.2
    -91.980762   -11.275889   -11.264282   -11.242223   -11.240878    -8.985756    -6.667348    -6.666301    -6.664361    -1.172316

          11.2         12.2         13.2         14.2         15.2         16.2         17.2         18.2         19.2         20.2
     -0.986472    -0.953911    -0.748263    -0.717835    -0.645054    -0.560565    -0.553416    -0.511782    -0.465618    -0.373334

          21.2         22.2         23.2
     -0.351372     0.084511     0.196955


 HOMO     22.1    -0.284360 =      -7.7378eV
 LUMO     22.2     0.084511 =       2.2997eV
 LUMO-HOMO         0.368871 =      10.0375eV

 Orbitals saved in record  2100.2


 **********************************************************************************************************************************
 DATASETS  * FILE   NREC   LENGTH (MB)   RECORD NAMES
              1      19      285.97       500      610      700      900      950      970     1000      129      960     1100   
                                          VAR    BASINP    GEOM    SYMINP    ZMAT    AOBASIS   BASIS     P2S    ABASIS      S 
                                         1400     1410     1200     1210     1080     1600     1650     1300     1700   
                                           T        V       H0       H01     AOSYM     SMH    MOLCAS    ERIS     OPER   

              2       4        0.90       700     1000      520     2100   
                                         GEOM     BASIS   MCVARS     RHF  

 PROGRAMS   *        TOTAL    HF-SCF       INT
 CPU TIMES  *        19.21      5.54     13.53
 REAL TIME  *        23.05 SEC
 DISK USED  *         1.03 GB
 **********************************************************************************************************************************


 PROGRAM * PAPT (Closed-shell)     Authors: C. Hampel, H.-J. Werner, 1991, P.J. Knowles, 2021


 Convergence thresholds:  THRVAR = 1.00D-08  THRDEN = 1.00D-06

 Number of core orbitals:          18 (   9   9 )
 Number of closed-shell orbitals:  25 (  13  12 )
 Number of external orbitals:     135 (  67  68 )

 Molecular orbitals read from record     2100.2  Type=RHF/CANONICAL  

 Number of N-1 electron functions:              25
 Number of N-2 electron functions:             325
 Number of singly external CSFs:              1687
 Number of doubly external CSFs:           2849344
 Total number of CSFs:                     2851032

 Length of J-op  integral file:               0.00 MB
 Length of K-op  integral file:               1.15 MB

 Integral transformation finished. Total CPU:   2.21 sec, npass=  1  Memory used:   6.07 MW

 Reference energy:                  -1101.48667557

                        CORR.ENERGY   TOTAL ENERGY   ENERGY CHANGE
 MP2:                   -1.31408431 -1102.80075988    -1.31408431

 SCS-MP2 correlation energy:           -1.26448277   (PS=  1.200000  PT=  0.333333)
 SCS-MP2 total energy:              -1102.75115834
 Iteration:   1     0.2616D+00
 Iteration:   2     0.1063D+01
 Iteration:   3     0.7724D-01
 Iteration:   4     0.2688D+00
 Iteration:   5     0.2447D-01
 Iteration:   6     0.4780D-01
 Iteration:   7     0.9878D-02
 Iteration:   8     0.5294D-02
 Iteration:   9     0.1197D-01
 Iteration:  10     0.9931D-03
 Iteration:  11     0.3163D-02
 Iteration:  12     0.2886D-03
 Iteration:  13     0.2991D-03
 Iteration:  14     0.2036D-03
 Iteration:  15     0.4505D-04
 PAPT operator written to  7000.1
 PAPT orbitals and eigenvalues written to  7000.2

 MP3(D):                -1.35197749 -1102.83865306    -0.03789318



 RESULTS
 =======

  Reference energy                  -1101.486675566470
  MP3 singlet pair energy              -0.857879239925
  MP3 triplet pair energy              -0.494098254746
  MP3 correlation energy               -1.351977494672

 !MP3 total energy                  -1102.838653061141

 Timing summary (sec):

 STEP                 CPU(USER)    SYS     CPU(TOT)    WALL
 Transformation          2.42      0.32      2.74      3.01
 CCSD iterations        38.44      0.46     38.90     20.00

 Program statistics:

 Available memory in ccsd:               805303846
 Min. memory needed in ccsd:               7139776
 Max. memory used in ccsd:                 9706982
 Max. memory used in cckext:              11159576 ( 1 integral passes)



 **********************************************************************************************************************************
 DATASETS  * FILE   NREC   LENGTH (MB)   RECORD NAMES
              1      21      345.32       500      610      700      900      950      970     1000      129      960     1100   
                                          VAR    BASINP    GEOM    SYMINP    ZMAT    AOBASIS   BASIS     P2S    ABASIS      S 
                                         1400     1410     1200     1210     1080     1600     1650     1300     1700     1380   
                                           T        V       H0       H01     AOSYM     SMH    MOLCAS    ERIS     OPER     JKOP   
                                         7000   
                                        PAPT AO    

              2       5        1.36       700     1000      520     2100     7000   
                                         GEOM     BASIS   MCVARS     RHF     PAPT   

 PROGRAMS   *        TOTAL      PAPT    HF-SCF       INT
 CPU TIMES  *        40.68     21.46      5.54     13.53
 REAL TIME  *        46.12 SEC
 DISK USED  *         1.03 GB
 **********************************************************************************************************************************


 PROGRAM * MP4 (Closed-shell)     Authors: C. Hampel, H.-J. Werner, 1991, M. Deegan, P.J. Knowles, 1992


 Convergence thresholds:  THRVAR = 1.00D-08  THRDEN = 1.00D-06

 MP4(T)     terms to be evaluated (factor= 0.000)


 Number of core orbitals:          18 (   9   9 )
 Number of closed-shell orbitals:  25 (  13  12 )
 Number of external orbitals:     135 (  67  68 )

 Molecular orbitals read from record     7000.2  Type=PAPT/CANONICAL (state 1.1)

 Number of N-1 electron functions:              25
 Number of N-2 electron functions:             325
 Number of singly external CSFs:              1687
 Number of doubly external CSFs:           2849344
 Total number of CSFs:                     2851032

 Length of J-op  integral file:               0.00 MB
 Length of K-op  integral file:               1.15 MB

 Memory could be reduced to 40.14 Mwords without degradation in triples

 Integral transformation finished. Total CPU:   7.34 sec, npass=  1  Memory used:  33.15 MW
 Orbital energies read from record       7000.2  Type=PAPT/CANONICAL (state 1.1)

 Reference energy:                  -1101.48667557

                        CORR.ENERGY   TOTAL ENERGY   ENERGY CHANGE
 MP2:                   -1.36550502 -1102.85218059    -1.36550502

 SCS-MP2 correlation energy:           -1.32345605   (PS=  1.200000  PT=  0.333333)
 SCS-MP2 total energy:              -1102.81013162

 MP3(D):                -1.36622656 -1102.85290213    -0.00072154
 MP4(DQ):               -1.35074093 -1102.83741650     0.01548563
 MP4(SDQ):              -1.36211845 -1102.84879402    -0.01137752

 Norm of t1 vector:      0.09779002      S-energy:    -0.01137752      T1 diagnostic:  0.00977900

 Largest off-diagonal element in interal  block of Fock matrix:  0.15D+00
 Largest off-diagonal element in external block of Fock matrix:  0.14D+00


 Total CPU time for triples:    214.43 sec


 RESULTS
 =======

  Reference energy                  -1101.486675566470
  MP4(SDQ) singlet pair energy         -0.858376322479
  MP4(SDQ) triplet pair energy         -0.492364610214
  MP4(SDQ) correlation energy          -1.362118449059

  Triples contribution                 -0.071068574571
  Total correlation energy             -1.433187023630

  MP4(SDQ) total energy             -1102.848794015528
 !MP4(SDTQ) total energy            -1102.919862590100

 Timing summary (sec):

 STEP                 CPU(USER)    SYS     CPU(TOT)    WALL
 Transformation          7.96      0.79      8.75      9.64
 CCSD iterations        60.48      0.28     60.76     20.03
 Triples               214.43     10.93    225.36    227.10

 Program statistics:

 Available memory in ccsd:               805303846
 Min. memory needed in ccsd:               7139776
 Max. memory used in ccsd:                 9706982
 Max. memory used in cckext:              11159576 ( 1 integral passes)



 **********************************************************************************************************************************
 DATASETS  * FILE   NREC   LENGTH (MB)   RECORD NAMES
              1      22      463.50       500      610      700      900      950      970     1000      129      960     1100   
                                          VAR    BASINP    GEOM    SYMINP    ZMAT    AOBASIS   BASIS     P2S    ABASIS      S 
                                         1400     1410     1200     1210     1080     1600     1650     1300     1700     1380   
                                           T        V       H0       H01     AOSYM     SMH    MOLCAS    ERIS     OPER     JKOP   
                                         7000     1380(1)
                                        PAPT AO   JKOP   

              2       5        1.36       700     1000      520     2100     7000   
                                         GEOM     BASIS   MCVARS     RHF     PAPT   

 PROGRAMS   *        TOTAL       MP4      PAPT    HF-SCF       INT
 CPU TIMES  *       282.68    241.99     21.46      5.54     13.53
 REAL TIME  *       302.97 SEC
 DISK USED  *         1.03 GB
 **********************************************************************************************************************************

 Dump information in style XML to xml output                                                                      

 Orbitals will not be exported.

 **********************************************************************************************************************************

 MP4/cc-pVDZ energy=  -1102.919862590100

             MP4            PAPT          HF-SCF
  -1102.91986259  -1102.83865306  -1101.48667557
 **********************************************************************************************************************************
 Molpro calculation terminated
