
 Working directory              : /home/jovyan/scratch/molpro.Re8122dCR4/
 Global scratch directory       : /home/jovyan/scratch/molpro.Re8122dCR4/
 Wavefunction directory         : /home/jovyan/wfu/
 Main file repository           : /home/jovyan/scratch/molpro.Re8122dCR4/

 id        : cardiff

 Nodes                nprocs
 jupyter-c-2efrancisan    1
 GA implementation: MPI file
 GA implementation (serial work in mppx): MPI file

 Using customized tuning parameters: mindgm=1; mindgv=20; mindgc=4; mindgr=1; noblas=0; minvec=7
 default implementation of scratch files=df  


 Variables initialized (1031), CPU time= 0.00 sec
 
 
 
 geometry={
 7
  C 0.000000 0.441567 0.000000
  H -0.160761 1.511265 0.000000
  O -1.190786 -0.218672 0.000000
  C 1.211912 -0.100389 0.000000
  H 1.366272 -1.172267 0.000000
  H 2.084631 0.533570 0.000000
  H -1.035326 -1.170266 0.000000
 }
 basis=cc-pVTZ
 angstrom
 
 
 hf; ccsd(t)
 
 
 
 {put,xml;noorbitals,nobasis}
 Commands initialized (841), CPU time= 0.01 sec, 704 directives.
 Default parameters read. Elapsed time= 0.09 sec

 Checking input...
 Passed
1


                                         ***  PROGRAM SYSTEM MOLPRO  ***
                                       Copyright, TTI GmbH Stuttgart, 2015
                                    Version 2023.1 linked Mon Jun  5 13:27:10 2023


 **********************************************************************************************************************************
 LABEL *                                                                                                                                                                 
  (16 PROC) 64 bit serial version                                                        DATE: 02-Aug-23          TIME: 15:51:48  
 **********************************************************************************************************************************

 SHA1:             9738a14712571edd23541b6d7c4f3a3d766f8287
 **********************************************************************************************************************************

 Memory per process:       805 MW
 Total memory per node:   1074 MW
 Total GA space:           268 MW

 GA preallocation disabled
 GA check enabled

 Geometry recognized as XYZ


 Variable memory set to 805.3 MW

 SETTING BASIS          =    CC-PVTZ


 Recomputing integrals since basis changed


 Using spherical harmonics

 Library entry C      S cc-pVTZ              selected for orbital group  1
 Library entry C      P cc-pVTZ              selected for orbital group  1
 Library entry C      D cc-pVTZ              selected for orbital group  1
 Library entry C      F cc-pVTZ              selected for orbital group  1
 Library entry H      S cc-pVTZ              selected for orbital group  2
 Library entry H      P cc-pVTZ              selected for orbital group  2
 Library entry H      D cc-pVTZ              selected for orbital group  2
 Library entry O      S cc-pVTZ              selected for orbital group  3
 Library entry O      P cc-pVTZ              selected for orbital group  3
 Library entry O      D cc-pVTZ              selected for orbital group  3
 Library entry O      F cc-pVTZ              selected for orbital group  3


 PROGRAM * SEWARD (Integral evaluation for generally contracted gaussian basis sets)     Author: Roland Lindh, 1990

 Geometry written to block  1 of record 700


 Point group  Cs  



 ATOMIC COORDINATES

 NR  ATOM    CHARGE       X              Y              Z

   1  C       6.00    0.000000000    0.834440696    0.000000000
   2  H       1.00   -0.303794262    2.855876952    0.000000000
   3  O       8.00   -2.250259413   -0.413230191    0.000000000
   4  C       6.00    2.290181767   -0.189707716    0.000000000
   5  H       1.00    2.581879892   -2.215263575    0.000000000
   6  H       1.00    3.939381661    1.008301168    0.000000000
   7  H       1.00   -1.956482590   -2.211482233    0.000000000

 Bond lengths in Bohr (Angstrom)

 1-2  2.044136857  1-3  2.573004094  1-4  2.508747196  3-7  1.822090895  4-5  2.046451645
     ( 1.081710641)     ( 1.361575130)     ( 1.327571844)     ( 0.964208978)     ( 1.082935574)

 4-6  2.038402702
     ( 1.078676257)

 Bond angles

  1-3-7  109.72812838   1-4-5  122.28852259   1-4-6  119.91090294   2-1-3  110.45965059

  2-1-4  122.64056834   3-1-4  126.89978108   5-4-6  117.80057446

 NUCLEAR CHARGE:                   24
 NUMBER OF PRIMITIVE AOS:         209
 NUMBER OF SYMMETRY AOS:          190
 NUMBER OF CONTRACTIONS:          146   (  100A'  +   46A"  )
 NUMBER OF INNER CORE ORBITALS:     0   (    0A'  +    0A"  )
 NUMBER OF OUTER CORE ORBITALS:     3   (    3A'  +    0A"  )
 NUMBER OF VALENCE ORBITALS:       16   (   13A'  +    3A"  )


 NUCLEAR REPULSION ENERGY   70.36485406


 Eigenvalues of metric

         1 0.562E-03 0.978E-03 0.141E-02 0.145E-02 0.170E-02 0.215E-02 0.374E-02 0.410E-02
         2 0.194E-01 0.332E-01 0.408E-01 0.544E-01 0.621E-01 0.675E-01 0.106E+00 0.114E+00


 Contracted 2-electron integrals neglected if value below      1.0D-11
 AO integral compression algorithm  1   Integral accuracy      1.0D-11

     132.383 MB (compressed) written to integral file ( 49.7%)


 NUMBER OF SORTED TWO-ELECTRON INTEGRALS:   29715746.     BUFFER LENGTH:  32768
 NUMBER OF SEGMENTS:   2  SEGMENT LENGTH:   15989846      RECORD LENGTH: 524288

 Memory used in sort:      16.55 MW

 SORT1 READ    33331169. AND WROTE    28566922. INTEGRALS IN     83 RECORDS. CPU TIME:     0.46 SEC, REAL TIME:     1.07 SEC
 SORT2 READ    28566922. AND WROTE    29715746. INTEGRALS IN    505 RECORDS. CPU TIME:     0.67 SEC, REAL TIME:     1.01 SEC

 FILE SIZES:   FILE 1:   163.1 MBYTE,  FILE 4:   348.2 MBYTE,   TOTAL:    511.3 MBYTE

 OPERATOR DM      FOR CENTER  0  COORDINATES:    0.000000    0.000000    0.000000


 **********************************************************************************************************************************
 DATASETS  * FILE   NREC   LENGTH (MB)   RECORD NAMES
              1      19      144.13       500      610      700      900      950      970     1000      129      960     1100   
                                          VAR    BASINP    GEOM    SYMINP    ZMAT    AOBASIS   BASIS     P2S    ABASIS      S 
                                         1400     1410     1200     1210     1080     1600     1650     1300     1700   
                                           T        V       H0       H01     AOSYM     SMH    MOLCAS    ERIS     OPER   

 PROGRAMS   *        TOTAL       INT
 CPU TIMES  *         6.07      5.93
 REAL TIME  *         8.82 SEC
 DISK USED  *       488.05 MB
 **********************************************************************************************************************************


 Program * Restricted Hartree-Fock

 Orbital guess generated from atomic densities. Full valence occupancy:   16   3

 Initial occupancy:  10   2

 NELEC=   24   SYM=1   MS2= 0   THRE=1.0D-08   THRD=3.2D-06   THRG=3.2D-06  HFMA2=F  DIIS_START=2   DIIS_MAX=10   DIIS_INCORE=F

 Level shifts:    0.00 (CLOSED)    0.00 (OPEN)    0.30 (GAP_MIN)

 ITER           ETOT              DE          GRAD        DDIFF     DIIS  NEXP   TIME(IT)  TIME(TOT)  DIAG
   1     -152.90990216    -152.90990216     0.00D+00     0.85D-01     0     0       0.23      0.45    start
   2     -152.94938419      -0.03948203     0.65D-02     0.94D-02     1     0       0.23      0.68    diag
   3     -152.95505842      -0.00567423     0.27D-02     0.27D-02     2     0       0.24      0.92    diag
   4     -152.95578256      -0.00072414     0.73D-03     0.90D-03     3     0       0.23      1.15    diag
   5     -152.95584404      -0.00006148     0.19D-03     0.26D-03     4     0       0.23      1.38    diag
   6     -152.95585124      -0.00000720     0.63D-04     0.93D-04     5     0       0.25      1.63    diag
   7     -152.95585257      -0.00000132     0.22D-04     0.40D-04     6     0       0.24      1.87    diag
   8     -152.95585278      -0.00000021     0.10D-04     0.18D-04     7     0       0.23      2.10    fixocc
   9     -152.95585280      -0.00000002     0.26D-05     0.65D-05     8     0       0.24      2.34    diag
  10     -152.95585280      -0.00000000     0.91D-06     0.22D-05     9     0       0.24      2.58    diag/orth
  11     -152.95585280      -0.00000000     0.24D-06     0.34D-06     0     0       0.23      2.81    diag

 Final occupancy:  10   2

 !RHF STATE 1.1 Energy               -152.955852803269
  RHF One-electron energy            -347.202796825689
  RHF Two-electron energy             123.882089959487
  RHF Kinetic energy                  152.741306972754
  RHF Nuclear energy                   70.364854062933
  RHF Virial quotient                  -1.001404635293

 !RHF STATE 1.1 Dipole moment           0.24733677    -0.29669072     0.00000000
 Dipole moment /Debye                   0.62866737    -0.75411258     0.00000000

 Orbital energies:

           1.1          2.1          3.1          4.1          5.1          6.1          7.1          8.1          9.1         10.1
    -20.588090   -11.297897   -11.212945    -1.401922    -1.023355    -0.831259    -0.679236    -0.668857    -0.546584    -0.540162

          11.1         12.1
      0.146049     0.169204

           1.2          2.2          3.2          4.2
     -0.578066    -0.350939     0.178016     0.441608


 HOMO      2.2    -0.350939 =      -9.5495eV
 LUMO     11.1     0.146049 =       3.9742eV
 LUMO-HOMO         0.496988 =      13.5237eV

 Orbitals saved in record  2100.2


 **********************************************************************************************************************************
 DATASETS  * FILE   NREC   LENGTH (MB)   RECORD NAMES
              1      19      144.13       500      610      700      900      950      970     1000      129      960     1100   
                                          VAR    BASINP    GEOM    SYMINP    ZMAT    AOBASIS   BASIS     P2S    ABASIS      S 
                                         1400     1410     1200     1210     1080     1600     1650     1300     1700   
                                           T        V       H0       H01     AOSYM     SMH    MOLCAS    ERIS     OPER   

              2       4        0.68       700     1000      520     2100   
                                         GEOM     BASIS   MCVARS     RHF  

 PROGRAMS   *        TOTAL    HF-SCF       INT
 CPU TIMES  *         8.88      2.81      5.93
 REAL TIME  *        12.22 SEC
 DISK USED  *       488.05 MB
 **********************************************************************************************************************************


 PROGRAM * CCSD (Closed-shell coupled cluster)     Authors: C. Hampel, H.-J. Werner, 1991, M. Deegan, P.J. Knowles, 1992


 Convergence thresholds:  THRVAR = 1.00D-08  THRDEN = 1.00D-06

 CCSD(T)     terms to be evaluated (factor= 1.000)


 Number of core orbitals:           3 (   3   0 )
 Number of closed-shell orbitals:   9 (   7   2 )
 Number of external orbitals:     134 (  90  44 )

 Molecular orbitals read from record     2100.2  Type=RHF/CANONICAL  

 Number of N-1 electron functions:               9
 Number of N-2 electron functions:              45
 Number of singly external CSFs:               718
 Number of doubly external CSFs:            377437
 Total number of CSFs:                      378156

 Length of J-op  integral file:               0.00 MB
 Length of K-op  integral file:               0.89 MB
 Length of 3-ext integral record:             0.00 MB

 Memory could be reduced to 15.24 Mwords without degradation in triples

 Integral transformation finished. Total CPU:   1.09 sec, npass=  1  Memory used:   4.74 MW

 Reference energy:                   -152.95585280

 MP2 singlet pair energy:              -0.36562123
 MP2 triplet pair energy:              -0.20407631
 MP2 correlation energy:               -0.56969754
 MP2 total energy:                   -153.52555035

 SCS-MP2 correlation energy:           -0.56572629   (PS=  1.200000  PT=  0.333333)
 SCS-MP2 total energy:               -153.52157910

 ITER.      SQ.NORM     CORR.ENERGY   TOTAL ENERGY   ENERGY CHANGE        DEN1      VAR(S)    VAR(P)  DIIS     TIME  TIME/IT
   1      1.17038955    -0.58830613  -153.54415893    -0.01860858    -0.00372078  0.28D-02  0.27D-02  1  1    11.53     1.28
   2      1.18269122    -0.58989939  -153.54575219    -0.00159327    -0.01298311  0.51D-04  0.46D-03  2  2    12.73     1.39
   3      1.18807279    -0.59012238  -153.54597518    -0.00022299    -0.00273548  0.48D-04  0.37D-04  3  3    13.94     1.38
   4      1.19012627    -0.59011581  -153.54596861     0.00000657    -0.00076756  0.33D-05  0.61D-05  4  4    15.15     1.37
   5      1.19089364    -0.59012313  -153.54597593    -0.00000732    -0.00017740  0.58D-06  0.52D-06  5  5    16.35     1.37
   6      1.19109556    -0.59011444  -153.54596724     0.00000869    -0.00002895  0.49D-07  0.34D-07  6  6    17.57     1.37
   7      1.19112548    -0.59011294  -153.54596575     0.00000150    -0.00000266  0.47D-08  0.44D-08  6  2    18.83     1.37
   8      1.19112960    -0.59011276  -153.54596556     0.00000019     0.00000036  0.10D-08  0.48D-09  6  1    20.03     1.36
   9      1.19113131    -0.59011261  -153.54596541     0.00000015     0.00000018  0.98D-10  0.77D-10  6  3    21.24     1.35

 Norm of t1 vector:      0.07340774      S-energy:    -0.00000030      T1 diagnostic:  0.01223462
                                                                       D1 diagnostic:  0.03455587
                                                                       D2 diagnostic:  0.18645838 (internal)

 Doubles amplitudes (print threshold =  0.500E-01):

         I         J         SYM. A    SYM. B    A         B      T(IJ, AB)

         9         9         2         2         1         1     -0.10067756


 Total CPU time for triples:     18.51 sec


 RESULTS
 =======

  Reference energy                   -152.955852803269
  CCSD singlet pair energy             -0.406304336054
  CCSD triplet pair energy             -0.183807967267
  CCSD correlation energy              -0.590112605004

  Triples (T) contribution             -0.024282849389
  Total correlation energy             -0.614395454393

  CCSD total energy                  -153.545965408273
  CCSD[T] energy                     -153.571102875532
  CCSD-T energy                      -153.569865339062
 !CCSD(T) total energy               -153.570248257662

 Timing summary (sec):

 STEP                 CPU(USER)    SYS     CPU(TOT)    WALL
 Transformation          1.11      0.13      1.24      2.02
 CCSD iterations        20.16      0.66     20.82     12.22
 Triples                18.51      0.60     19.11     19.50

 Program statistics:

 Available memory in ccsd:               805306034
 Min. memory needed in ccsd:               1118265
 Max. memory used in ccsd:                 1437767
 Max. memory used in cckext:               1578181 ( 9 integral passes)



 **********************************************************************************************************************************
 DATASETS  * FILE   NREC   LENGTH (MB)   RECORD NAMES
              1      20      192.72       500      610      700      900      950      970     1000      129      960     1100   
                                          VAR    BASINP    GEOM    SYMINP    ZMAT    AOBASIS   BASIS     P2S    ABASIS      S 
                                         1400     1410     1200     1210     1080     1600     1650     1300     1700     1380   
                                           T        V       H0       H01     AOSYM     SMH    MOLCAS    ERIS     OPER     JKOP   

              2       4        0.68       700     1000      520     2100   
                                         GEOM     BASIS   MCVARS     RHF  

 PROGRAMS   *        TOTAL   CCSD(T)    HF-SCF       INT
 CPU TIMES  *        39.44     30.55      2.81      5.93
 REAL TIME  *        46.03 SEC
 DISK USED  *       488.05 MB
 **********************************************************************************************************************************

 Dump information in style XML to xml output                                                                      

 Orbitals will not be exported.

 **********************************************************************************************************************************

 CCSD(T)/cc-pVTZ energy=   -153.570248257662

         CCSD(T)          HF-SCF
   -153.57024826   -152.95585280
 **********************************************************************************************************************************
 Molpro calculation terminated
