
 Working directory              : /home/jovyan/scratch/molpro.JoeIxXQXcV/
 Global scratch directory       : /home/jovyan/scratch/molpro.JoeIxXQXcV/
 Wavefunction directory         : /home/jovyan/wfu/
 Main file repository           : /home/jovyan/scratch/molpro.JoeIxXQXcV/

 id        : cardiff

 Nodes                nprocs
 jupyter-c-2efrancisan    1
 GA implementation: MPI file
 GA implementation (serial work in mppx): MPI file

 Using customized tuning parameters: mindgm=1; mindgv=20; mindgc=4; mindgr=1; noblas=0; minvec=7
 default implementation of scratch files=df  


 Variables initialized (1031), CPU time= 0.00 sec
 
 
 
 geometry={
 8
  4HF (cyc) (Full point group C4h)
  H -0.302062 1.405585 0.000000
  H 1.405585 0.302062 0.000000
  H 0.302062 -1.405585 0.000000
  H -1.405585 -0.302062 0.000000
  F 1.249541 1.249541 0.000000
  F -1.249541 1.249541 0.000000
  F 1.249541 -1.249541 0.000000
  F -1.249541 -1.249541 0.000000
 }
 basis=cc-pVDZ
 angstrom
 
 
 hf; ccsd
 
 
 
 {put,xml;noorbitals,nobasis}
 Commands initialized (841), CPU time= 0.01 sec, 704 directives.
 Default parameters read. Elapsed time= 0.07 sec

 Checking input...
 Passed
1


                                         ***  PROGRAM SYSTEM MOLPRO  ***
                                       Copyright, TTI GmbH Stuttgart, 2015
                                    Version 2023.1 linked Mon Jun  5 13:27:10 2023


 **********************************************************************************************************************************
 LABEL *                                                                                                                                                                 
  (16 PROC) 64 bit serial version                                                        DATE: 03-Aug-23          TIME: 13:46:04  
 **********************************************************************************************************************************

 SHA1:             9738a14712571edd23541b6d7c4f3a3d766f8287
 **********************************************************************************************************************************

 Memory per process:       805 MW
 Total memory per node:   1074 MW
 Total GA space:           268 MW

 GA preallocation disabled
 GA check enabled

 Geometry recognized as XYZ


 Variable memory set to 805.3 MW

 SETTING BASIS          =    CC-PVDZ


 Recomputing integrals since basis changed


 Using spherical harmonics

 Library entry H      S cc-pVDZ              selected for orbital group  1
 Library entry H      P cc-pVDZ              selected for orbital group  1
 Library entry F      S cc-pVDZ              selected for orbital group  2
 Library entry F      P cc-pVDZ              selected for orbital group  2
 Library entry F      D cc-pVDZ              selected for orbital group  2


 PROGRAM * SEWARD (Integral evaluation for generally contracted gaussian basis sets)     Author: Roland Lindh, 1990

 Geometry written to block  1 of record 700


 Point group  C2h 



 ATOMIC COORDINATES

 NR  ATOM    CHARGE       X              Y              Z

   1  H       1.00   -0.570814453    2.656170695    0.000000000
   2  H       1.00    0.570814453   -2.656170695    0.000000000
   3  H       1.00    2.656170695    0.570814453    0.000000000
   4  H       1.00   -2.656170695   -0.570814453    0.000000000
   5  F       9.00    2.361290271    2.361290271    0.000000000
   6  F       9.00   -2.361290271   -2.361290271    0.000000000
   7  F       9.00   -2.361290271    2.361290271    0.000000000
   8  F       9.00    2.361290271   -2.361290271    0.000000000

 Bond lengths in Bohr (Angstrom)

 1-7  1.814595856  2-8  1.814595856  3-5  1.814595856  4-6  1.814595856
     ( 0.960242774)     ( 0.960242774)     ( 0.960242774)     ( 0.960242774)

 NUCLEAR CHARGE:                   40
 NUMBER OF PRIMITIVE AOS:         136
 NUMBER OF SYMMETRY AOS:          132
 NUMBER OF CONTRACTIONS:           76   (   28Ag  +   10Au  +   28Bu  +   10Bg  )
 NUMBER OF INNER CORE ORBITALS:     0   (    0Ag  +    0Au  +    0Bu  +    0Bg  )
 NUMBER OF OUTER CORE ORBITALS:     4   (    2Ag  +    0Au  +    2Bu  +    0Bg  )
 NUMBER OF VALENCE ORBITALS:       20   (    8Ag  +    2Au  +    8Bu  +    2Bg  )


 NUCLEAR REPULSION ENERGY  139.27949071


 Eigenvalues of metric

         1 0.217E-01 0.237E-01 0.498E-01 0.528E-01 0.914E-01 0.152E+00 0.171E+00 0.189E+00
         2 0.187E+00 0.194E+00 0.620E+00 0.698E+00 0.100E+01 0.100E+01 0.109E+01 0.115E+01
         3 0.221E-01 0.221E-01 0.478E-01 0.478E-01 0.136E+00 0.136E+00 0.180E+00 0.180E+00
         4 0.191E+00 0.191E+00 0.657E+00 0.657E+00 0.100E+01 0.100E+01 0.111E+01 0.111E+01


 Contracted 2-electron integrals neglected if value below      1.0D-11
 AO integral compression algorithm  1   Integral accuracy      1.0D-11

     6.816 MB (compressed) written to integral file ( 51.4%)


 NUMBER OF SORTED TWO-ELECTRON INTEGRALS:    1175065.     BUFFER LENGTH:  32768
 NUMBER OF SEGMENTS:   1  SEGMENT LENGTH:    1175065      RECORD LENGTH: 524288

 Memory used in sort:       1.73 MW

 SORT1 READ     1595856. AND WROTE     1143375. INTEGRALS IN      4 RECORDS. CPU TIME:     0.03 SEC, REAL TIME:     0.06 SEC
 SORT2 READ     1143375. AND WROTE     1175065. INTEGRALS IN     26 RECORDS. CPU TIME:     0.07 SEC, REAL TIME:     0.08 SEC

 FILE SIZES:   FILE 1:    37.1 MBYTE,  FILE 4:    16.8 MBYTE,   TOTAL:     53.9 MBYTE

 OPERATOR DM      FOR CENTER  0  COORDINATES:    0.000000    0.000000    0.000000


 **********************************************************************************************************************************
 DATASETS  * FILE   NREC   LENGTH (MB)   RECORD NAMES
              1      19       33.54       500      610      700      900      950      970     1000      129      960     1100   
                                          VAR    BASINP    GEOM    SYMINP    ZMAT    AOBASIS   BASIS     P2S    ABASIS      S 
                                         1400     1410     1200     1210     1080     1600     1650     1300     1700   
                                           T        V       H0       H01     AOSYM     SMH    MOLCAS    ERIS     OPER   

 PROGRAMS   *        TOTAL       INT
 CPU TIMES  *         0.99      0.86
 REAL TIME  *         2.06 SEC
 DISK USED  *        51.87 MB
 **********************************************************************************************************************************


 Program * Restricted Hartree-Fock

 Orbital guess generated from atomic densities. Full valence occupancy:   10   2  10   2

 Initial occupancy:   8   2   8   2

 NELEC=   40   SYM=1   MS2= 0   THRE=1.0D-08   THRD=3.2D-06   THRG=3.2D-06  HFMA2=F  DIIS_START=2   DIIS_MAX=10   DIIS_INCORE=F

 Level shifts:    0.00 (CLOSED)    0.00 (OPEN)    0.30 (GAP_MIN)

 ITER           ETOT              DE          GRAD        DDIFF     DIIS  NEXP   TIME(IT)  TIME(TOT)  DIAG
   1     -400.05422448    -400.05422448     0.00D+00     0.28D+00     0     0       0.00      0.01    start
   2     -400.10967776      -0.05545329     0.16D-01     0.33D-01     1     0       0.01      0.02    diag
   3     -400.12047396      -0.01079620     0.73D-02     0.94D-02     2     0       0.01      0.03    diag
   4     -400.12095001      -0.00047605     0.11D-02     0.23D-02     3     0       0.01      0.04    diag
   5     -400.12100743      -0.00005742     0.29D-03     0.80D-03     4     0       0.00      0.04    diag
   6     -400.12101297      -0.00000554     0.78D-04     0.23D-03     5     0       0.01      0.05    diag
   7     -400.12101306      -0.00000009     0.10D-04     0.29D-04     6     0       0.01      0.06    diag
   8     -400.12101306      -0.00000000     0.11D-05     0.26D-05     7     0       0.01      0.07    fixocc
   9     -400.12101306      -0.00000000     0.23D-06     0.37D-06     0     0       0.01      0.08    diag

 Final occupancy:   8   2   8   2

 !RHF STATE 1.1 Energy               -400.121013056205
  RHF One-electron energy            -838.141479554519
  RHF Two-electron energy             298.740975789036
  RHF Kinetic energy                  399.961463163983
  RHF Nuclear energy                  139.279490709279
  RHF Virial quotient                  -1.000398913163

 !RHF STATE 1.1 Dipole moment           0.00000000     0.00000000     0.00000000
 Dipole moment /Debye                   0.00000000     0.00000000     0.00000000

 Orbital energies:

           1.1          2.1          3.1          4.1          5.1          6.1          7.1          8.1          9.1         10.1
    -26.320653   -26.320644    -1.643635    -1.601746    -0.837225    -0.779571    -0.666668    -0.650894     0.194890     0.374119

           1.2          2.2          3.2          4.2
     -0.685003    -0.661917     1.254088     1.426420

           1.3          2.3          3.3          4.3          5.3          6.3          7.3          8.3          9.3         10.3
    -26.320650   -26.320650    -1.622706    -1.622706    -0.800794    -0.800794    -0.663573    -0.663573     0.296056     0.296056

           1.4          2.4          3.4          4.4
     -0.673179    -0.673179     1.310426     1.310426


 HOMO      8.1    -0.650894 =     -17.7117eV
 LUMO      9.1     0.194890 =       5.3032eV
 LUMO-HOMO         0.845784 =      23.0150eV

 Orbitals saved in record  2100.2


 **********************************************************************************************************************************
 DATASETS  * FILE   NREC   LENGTH (MB)   RECORD NAMES
              1      19       33.54       500      610      700      900      950      970     1000      129      960     1100   
                                          VAR    BASINP    GEOM    SYMINP    ZMAT    AOBASIS   BASIS     P2S    ABASIS      S 
                                         1400     1410     1200     1210     1080     1600     1650     1300     1700   
                                           T        V       H0       H01     AOSYM     SMH    MOLCAS    ERIS     OPER   

              2       4        0.53       700     1000      520     2100   
                                         GEOM     BASIS   MCVARS     RHF  

 PROGRAMS   *        TOTAL    HF-SCF       INT
 CPU TIMES  *         1.07      0.08      0.86
 REAL TIME  *         2.16 SEC
 DISK USED  *        51.87 MB
 **********************************************************************************************************************************


 PROGRAM * CCSD (Closed-shell coupled cluster)     Authors: C. Hampel, H.-J. Werner, 1991, M. Deegan, P.J. Knowles, 1992


 Convergence thresholds:  THRVAR = 1.00D-08  THRDEN = 1.00D-06

 Number of core orbitals:           4 (   2   0   2   0 )
 Number of closed-shell orbitals:  16 (   6   2   6   2 )
 Number of external orbitals:      56 (  20   8  20   8 )

 Molecular orbitals read from record     2100.2  Type=RHF/CANONICAL  

 Number of N-1 electron functions:              16
 Number of N-2 electron functions:             136
 Number of singly external CSFs:               272
 Number of doubly external CSFs:            105408
 Total number of CSFs:                      105681

 Length of J-op  integral file:               0.00 MB
 Length of K-op  integral file:               0.18 MB
 Length of 3-ext integral record:             0.00 MB

 Integral transformation finished. Total CPU:   0.06 sec, npass=  1  Memory used:   0.63 MW

 Reference energy:                   -400.12101306

 MP2 singlet pair energy:              -0.49295442
 MP2 triplet pair energy:              -0.33475431
 MP2 correlation energy:               -0.82770873
 MP2 total energy:                   -400.94872179

 SCS-MP2 correlation energy:           -0.79983688   (PS=  1.200000  PT=  0.333333)
 SCS-MP2 total energy:               -400.92084993

 ITER.      SQ.NORM     CORR.ENERGY   TOTAL ENERGY   ENERGY CHANGE        DEN1      VAR(S)    VAR(P)  DIIS     TIME  TIME/IT
   1      1.16583016    -0.84167642  -400.96268947    -0.01396768    -0.00120122  0.23D-02  0.19D-02  1  1     1.56     0.17
   2      1.17409555    -0.84328728  -400.96430033    -0.00161086    -0.01194456  0.23D-04  0.25D-03  2  2     1.72     0.18
   3      1.17673600    -0.84358269  -400.96459574    -0.00029541    -0.00211913  0.23D-04  0.69D-05  3  3     1.89     0.18
   4      1.17744404    -0.84354015  -400.96455321     0.00004253    -0.00045751  0.11D-05  0.65D-06  4  4     2.06     0.18
   5      1.17761510    -0.84351714  -400.96453020     0.00002302    -0.00008066  0.13D-06  0.44D-07  5  5     2.23     0.18
   6      1.17764762    -0.84351592  -400.96452897     0.00000122    -0.00000415  0.15D-07  0.47D-08  6  6     2.40     0.18
   7      1.17765447    -0.84351547  -400.96452853     0.00000045     0.00000094  0.11D-08  0.42D-09  6  1     2.57     0.18
   8      1.17765632    -0.84351514  -400.96452820     0.00000033    -0.00000039  0.16D-09  0.51D-10  6  2     2.74     0.18

 Norm of t1 vector:      0.06494226      S-energy:     0.00000001      T1 diagnostic:  0.00811778
                                                                       D1 diagnostic:  0.02186468
                                                                       D2 diagnostic:  0.11391807 (internal)


 RESULTS
 =======

  Reference energy                   -400.121013056205
  CCSD singlet pair energy             -0.544528125969
  CCSD triplet pair energy             -0.298987031352
  CCSD correlation energy              -0.843515144723

 !CCSD total energy                  -400.964528200928

 Timing summary (sec):

 STEP                 CPU(USER)    SYS     CPU(TOT)    WALL
 Transformation          0.06      0.01      0.07      0.09
 CCSD iterations         2.71      0.14      2.85      1.53

 Program statistics:

 Available memory in ccsd:               805305336
 Min. memory needed in ccsd:                313591
 Max. memory used in ccsd:                  400551
 Max. memory used in cckext:                487206 ( 8 integral passes)



 **********************************************************************************************************************************
 DATASETS  * FILE   NREC   LENGTH (MB)   RECORD NAMES
              1      20       38.83       500      610      700      900      950      970     1000      129      960     1100   
                                          VAR    BASINP    GEOM    SYMINP    ZMAT    AOBASIS   BASIS     P2S    ABASIS      S 
                                         1400     1410     1200     1210     1080     1600     1650     1300     1700     1380   
                                           T        V       H0       H01     AOSYM     SMH    MOLCAS    ERIS     OPER     JKOP   

              2       4        0.53       700     1000      520     2100   
                                         GEOM     BASIS   MCVARS     RHF  

 PROGRAMS   *        TOTAL      CCSD    HF-SCF       INT
 CPU TIMES  *         2.55      1.48      0.08      0.86
 REAL TIME  *         3.82 SEC
 DISK USED  *        57.58 MB
 **********************************************************************************************************************************

 Dump information in style XML to xml output                                                                      

 Orbitals will not be exported.

 **********************************************************************************************************************************

 CCSD/cc-pVDZ energy=   -400.964528200928

            CCSD          HF-SCF
   -400.96452820   -400.12101306
 **********************************************************************************************************************************
 Molpro calculation terminated
