
 Working directory              : /home/jovyan/scratch/molpro.JeYvFImXKi/
 Global scratch directory       : /home/jovyan/scratch/molpro.JeYvFImXKi/
 Wavefunction directory         : /home/jovyan/wfu/
 Main file repository           : /home/jovyan/scratch/molpro.JeYvFImXKi/

 id        : cardiff

 Nodes                nprocs
 jupyter-c-2efrancisan    1
 GA implementation: MPI file
 GA implementation (serial work in mppx): MPI file

 Using customized tuning parameters: mindgm=1; mindgv=20; mindgc=4; mindgr=1; noblas=0; minvec=7
 default implementation of scratch files=df  


 Variables initialized (1031), CPU time= 0.00 sec
 
 
 
 geometry={
 9
  C 0.057227 -0.404548 0.000000
  H 0.094881 -1.490374 0.000000
  C 0.057227 0.193471 1.290465
  H 0.016071 1.265997 1.410672
  H -1.068272 -0.071437 0.000000
  H -0.044418 -0.432272 2.160920
  C 0.057227 0.193471 -1.290465
  H -0.044418 -0.432272 -2.160920
  H 0.016071 1.265997 -1.410672
 }
 basis=cc-pVDZ
 angstrom
 
 
 hf; mp4
 
 
 
 {put,xml;noorbitals,nobasis}
 Commands initialized (841), CPU time= 0.01 sec, 704 directives.
 Default parameters read. Elapsed time= 0.09 sec

 Checking input...
 Passed
1


                                         ***  PROGRAM SYSTEM MOLPRO  ***
                                       Copyright, TTI GmbH Stuttgart, 2015
                                    Version 2023.1 linked Mon Jun  5 13:27:10 2023


 **********************************************************************************************************************************
 LABEL *                                                                                                                                                                 
  (16 PROC) 64 bit serial version                                                        DATE: 02-Aug-23          TIME: 15:38:02  
 **********************************************************************************************************************************

 SHA1:             9738a14712571edd23541b6d7c4f3a3d766f8287
 **********************************************************************************************************************************

 Memory per process:       805 MW
 Total memory per node:   1074 MW
 Total GA space:           268 MW

 GA preallocation disabled
 GA check enabled

 Geometry recognized as XYZ


 Variable memory set to 805.3 MW

 SETTING BASIS          =    CC-PVDZ


 Recomputing integrals since basis changed


 Using spherical harmonics

 Library entry C      S cc-pVDZ              selected for orbital group  1
 Library entry C      P cc-pVDZ              selected for orbital group  1
 Library entry C      D cc-pVDZ              selected for orbital group  1
 Library entry H      S cc-pVDZ              selected for orbital group  2
 Library entry H      P cc-pVDZ              selected for orbital group  2


 PROGRAM * SEWARD (Integral evaluation for generally contracted gaussian basis sets)     Author: Roland Lindh, 1990

 Geometry written to block  1 of record 700


 Point group  Cs  



 ATOMIC COORDINATES

 NR  ATOM    CHARGE       X              Y              Z

   1  C       6.00    0.108143357   -0.764484924    0.000000000
   2  H       1.00    0.179299104   -2.816398683    0.000000000
   3  C       6.00    0.108143357    0.365607203    2.438625423
   4  C       6.00    0.108143357    0.365607203   -2.438625423
   5  H       1.00    0.030369789    2.392387605    2.665783732
   6  H       1.00    0.030369789    2.392387605   -2.665783732
   7  H       1.00   -2.018741507   -0.134996365    0.000000000
   8  H       1.00   -0.083937855   -0.816875691    4.083546977
   9  H       1.00   -0.083937855   -0.816875691   -4.083546977

 Bond lengths in Bohr (Angstrom)

 1-2  2.053147149  1-3  2.687750392  1-4  2.687750392  1-7  2.218083648  3-5  2.040952822
     ( 1.086478682)     ( 1.422296256)     ( 1.422296256)     ( 1.173759318)     ( 1.080025722)

 3-8  2.034927003  4-6  2.040952822  4-9  2.034927003
     ( 1.076836996)     ( 1.080025722)     ( 1.076836996)

 Bond angles

  1-3-5  121.23332070   1-3-8  119.28097813   1-4-6  121.23332070   1-4-9  119.28097813

  2-1-3  114.84769727   2-1-4  114.84769727   2-1-7  108.47312844   3-1-4  130.27270670

  3-1-7   83.14679817   4-1-7   83.14679817   5-3-8  118.91376007   6-4-9  118.91376007

 NUCLEAR CHARGE:                   24
 NUMBER OF PRIMITIVE AOS:         123
 NUMBER OF SYMMETRY AOS:          120
 NUMBER OF CONTRACTIONS:           72   (   42A'  +   30A"  )
 NUMBER OF INNER CORE ORBITALS:     0   (    0A'  +    0A"  )
 NUMBER OF OUTER CORE ORBITALS:     3   (    2A'  +    1A"  )
 NUMBER OF VALENCE ORBITALS:       18   (   11A'  +    7A"  )


 NUCLEAR REPULSION ENERGY   71.19404132

 Eigenvalues of metric

         1 0.263E-02 0.131E-01 0.154E-01 0.288E-01 0.361E-01 0.416E-01 0.463E-01 0.561E-01
         2 0.353E-02 0.196E-01 0.312E-01 0.335E-01 0.446E-01 0.741E-01 0.988E-01 0.126E+00


 Contracted 2-electron integrals neglected if value below      1.0D-11
 AO integral compression algorithm  1   Integral accuracy      1.0D-11

     9.437 MB (compressed) written to integral file ( 53.0%)


 NUMBER OF SORTED TWO-ELECTRON INTEGRALS:    1776186.     BUFFER LENGTH:  32768
 NUMBER OF SEGMENTS:   1  SEGMENT LENGTH:    1776186      RECORD LENGTH: 524288

 Memory used in sort:       2.33 MW

 SORT1 READ     2232874. AND WROTE     1660242. INTEGRALS IN      5 RECORDS. CPU TIME:     0.03 SEC, REAL TIME:     0.22 SEC
 SORT2 READ     1660242. AND WROTE     1776186. INTEGRALS IN     36 RECORDS. CPU TIME:     0.08 SEC, REAL TIME:     0.09 SEC

 FILE SIZES:   FILE 1:    39.7 MBYTE,  FILE 4:    21.0 MBYTE,   TOTAL:     60.7 MBYTE

 OPERATOR DM      FOR CENTER  0  COORDINATES:    0.000000    0.000000    0.000000


 **********************************************************************************************************************************
 DATASETS  * FILE   NREC   LENGTH (MB)   RECORD NAMES
              1      19       36.13       500      610      700      900      950      970     1000      129      960     1100   
                                          VAR    BASINP    GEOM    SYMINP    ZMAT    AOBASIS   BASIS     P2S    ABASIS      S 
                                         1400     1410     1200     1210     1080     1600     1650     1300     1700   
                                           T        V       H0       H01     AOSYM     SMH    MOLCAS    ERIS     OPER   

 PROGRAMS   *        TOTAL       INT
 CPU TIMES  *         1.14      1.00
 REAL TIME  *         2.62 SEC
 DISK USED  *        58.39 MB
 **********************************************************************************************************************************


 Program * Restricted Hartree-Fock

 Orbital guess generated from atomic densities. Full valence occupancy:   13   8

 Initial occupancy:   7   5

 NELEC=   24   SYM=1   MS2= 0   THRE=1.0D-08   THRD=3.2D-06   THRG=3.2D-06  HFMA2=F  DIIS_START=2   DIIS_MAX=10   DIIS_INCORE=F

 Level shifts:    0.00 (CLOSED)    0.00 (OPEN)    0.30 (GAP_MIN)

 ITER           ETOT              DE          GRAD        DDIFF     DIIS  NEXP   TIME(IT)  TIME(TOT)  DIAG
   1     -116.86767533    -116.86767533     0.00D+00     0.17D+00     0     0       0.01      0.02    start
   2     -116.90691250      -0.03923716     0.86D-02     0.20D-01     1     0       0.02      0.04    diag
   3     -116.91101301      -0.00410051     0.31D-02     0.57D-02     2     0       0.01      0.05    diag
   4     -116.91150403      -0.00049102     0.80D-03     0.23D-02     3     0       0.01      0.06    diag
   5     -116.91151297      -0.00000894     0.10D-03     0.26D-03     4     0       0.01      0.07    diag
   6     -116.91151399      -0.00000102     0.33D-04     0.96D-04     5     0       0.02      0.09    diag
   7     -116.91151411      -0.00000013     0.93D-05     0.30D-04     6     0       0.01      0.10    diag
   8     -116.91151413      -0.00000001     0.35D-05     0.95D-05     7     0       0.01      0.11    fixocc
   9     -116.91151413      -0.00000000     0.10D-05     0.37D-05     8     0       0.02      0.13    diag
  10     -116.91151413      -0.00000000     0.20D-06     0.65D-06     9     0       0.01      0.14    diag/orth
  11     -116.91151413      -0.00000000     0.34D-07     0.77D-07     0     0       0.01      0.15    diag

 Final occupancy:   7   5

 !RHF STATE 1.1 Energy               -116.911514128526
  RHF One-electron energy            -297.005208315526
  RHF Two-electron energy             108.899652867140
  RHF Kinetic energy                  116.764930816486
  RHF Nuclear energy                   71.194041319861
  RHF Virial quotient                  -1.001255371035

 !RHF STATE 1.1 Dipole moment          -0.48063769    -0.24412682     0.00000000
 Dipole moment /Debye                  -1.22165915    -0.62050849     0.00000000

 Orbital energies:

           1.1          2.1          3.1          4.1          5.1          6.1          7.1          8.1          9.1
    -11.277030   -11.226761    -1.104518    -0.764181    -0.662321    -0.561215    -0.502607     0.104817     0.175546

           1.2          2.2          3.2          4.2          5.2          6.2          7.2
    -11.226812    -0.914497    -0.592813    -0.537511    -0.232686     0.238312     0.284549


 HOMO      5.2    -0.232686 =      -6.3317eV
 LUMO      8.1     0.104817 =       2.8522eV
 LUMO-HOMO         0.337503 =       9.1839eV

 Orbitals saved in record  2100.2


 **********************************************************************************************************************************
 DATASETS  * FILE   NREC   LENGTH (MB)   RECORD NAMES
              1      19       36.13       500      610      700      900      950      970     1000      129      960     1100   
                                          VAR    BASINP    GEOM    SYMINP    ZMAT    AOBASIS   BASIS     P2S    ABASIS      S 
                                         1400     1410     1200     1210     1080     1600     1650     1300     1700   
                                           T        V       H0       H01     AOSYM     SMH    MOLCAS    ERIS     OPER   

              2       4        0.56       700     1000      520     2100   
                                         GEOM     BASIS   MCVARS     RHF  

 PROGRAMS   *        TOTAL    HF-SCF       INT
 CPU TIMES  *         1.31      0.17      1.00
 REAL TIME  *         2.89 SEC
 DISK USED  *        58.39 MB
 **********************************************************************************************************************************


 PROGRAM * MP4 (Closed-shell)     Authors: C. Hampel, H.-J. Werner, 1991, M. Deegan, P.J. Knowles, 1992


 Convergence thresholds:  THRVAR = 1.00D-08  THRDEN = 1.00D-06

 MP4(T)     terms to be evaluated (factor= 0.000)


 Number of core orbitals:           3 (   2   1 )
 Number of closed-shell orbitals:   9 (   5   4 )
 Number of external orbitals:      60 (  35  25 )

 Molecular orbitals read from record     2100.2  Type=RHF/CANONICAL  

 Number of N-1 electron functions:               9
 Number of N-2 electron functions:              45
 Number of singly external CSFs:               275
 Number of doubly external CSFs:             73195
 Total number of CSFs:                       73471

 Length of J-op  integral file:               0.00 MB
 Length of K-op  integral file:               0.25 MB

 Memory could be reduced to 1.46 Mwords without degradation in triples

 Integral transformation finished. Total CPU:   0.08 sec, npass=  1  Memory used:   0.87 MW

 Reference energy:                   -116.91151413

                        CORR.ENERGY   TOTAL ENERGY   ENERGY CHANGE
 MP2:                   -0.45461932  -117.36613345    -0.45461932

 SCS-MP2 correlation energy:           -0.45302959   (PS=  1.200000  PT=  0.333333)
 SCS-MP2 total energy:               -117.36454372

 MP3(D):                -0.48256368  -117.39407781    -0.02794436
 MP4(DQ):               -0.48320793  -117.39472206    -0.00064425
 MP4(SDQ):              -0.48825287  -117.39976699    -0.00504493

 Norm of t1 vector:      0.06774927      S-energy:    -0.00504493      T1 diagnostic:  0.01129155


 Total CPU time for triples:      0.62 sec


 RESULTS
 =======

  Reference energy                   -116.911514128526
  MP4(SDQ) singlet pair energy         -0.334243664988
  MP4(SDQ) triplet pair energy         -0.148964267246
  MP4(SDQ) correlation energy          -0.488252865639

  Triples contribution                 -0.021020865598
  Total correlation energy             -0.509273731237

  MP4(SDQ) total energy              -117.399766994165
 !MP4(SDTQ) total energy             -117.420787859763

 Timing summary (sec):

 STEP                 CPU(USER)    SYS     CPU(TOT)    WALL
 Transformation          0.09      0.02      0.11      0.39
 CCSD iterations         1.85      0.01      1.86      0.41
 Triples                 0.62      0.06      0.68      0.70

 Program statistics:

 Available memory in ccsd:               805306037
 Min. memory needed in ccsd:                230270
 Max. memory used in ccsd:                  288395
 Max. memory used in cckext:                336941 ( 1 integral passes)



 **********************************************************************************************************************************
 DATASETS  * FILE   NREC   LENGTH (MB)   RECORD NAMES
              1      20       41.29       500      610      700      900      950      970     1000      129      960     1100   
                                          VAR    BASINP    GEOM    SYMINP    ZMAT    AOBASIS   BASIS     P2S    ABASIS      S 
                                         1400     1410     1200     1210     1080     1600     1650     1300     1700     1380   
                                           T        V       H0       H01     AOSYM     SMH    MOLCAS    ERIS     OPER     JKOP   

              2       4        0.56       700     1000      520     2100   
                                         GEOM     BASIS   MCVARS     RHF  

 PROGRAMS   *        TOTAL       MP4    HF-SCF       INT
 CPU TIMES  *         2.25      0.94      0.17      1.00
 REAL TIME  *         4.45 SEC
 DISK USED  *        58.39 MB
 **********************************************************************************************************************************

 Dump information in style XML to xml output                                                                      

 Orbitals will not be exported.

 **********************************************************************************************************************************

 MP4/cc-pVDZ energy=   -117.420787859763

             MP4          HF-SCF
   -117.42078786   -116.91151413
 **********************************************************************************************************************************
 Molpro calculation terminated
