
 Working directory              : /home/jovyan/scratch/molpro.1uVhe3vwk0/
 Global scratch directory       : /home/jovyan/scratch/molpro.1uVhe3vwk0/
 Wavefunction directory         : /home/jovyan/wfu/
 Main file repository           : /home/jovyan/scratch/molpro.1uVhe3vwk0/

 id        : cardiff

 Nodes                nprocs
 jupyter-c-2efrancisan    1
 GA implementation: MPI file
 GA implementation (serial work in mppx): MPI file

 Using customized tuning parameters: mindgm=1; mindgv=20; mindgc=4; mindgr=1; noblas=0; minvec=7
 default implementation of scratch files=df  


 Variables initialized (1031), CPU time= 0.01 sec
 
 
 
 geometry={
 10
  C     0.0240053    0.7372345   -0.4077909
  C    -0.0240053   -0.7372345   -0.4077909
  C     0.8896528    1.4589341    0.2837537
  H    -0.7007229    1.2440229   -1.0342574
  H     0.8809846    2.5367250    0.2414324
  H     1.6311062    0.9968323    0.9184411
  C    -0.8896528   -1.4589341    0.2837537
  H     0.7007229   -1.2440229   -1.0342574
  H    -1.6311062   -0.9968323    0.9184411
  H    -0.8809846   -2.5367250    0.2414324
 }
 basis=cc-pVDZ
 angstrom
 
 
 hf; mp3
 
 
 
 {put,xml;noorbitals,nobasis}
 Commands initialized (841), CPU time= 0.01 sec, 704 directives.
 Default parameters read. Elapsed time= 0.08 sec

 Checking input...
 Passed
1


                                         ***  PROGRAM SYSTEM MOLPRO  ***
                                       Copyright, TTI GmbH Stuttgart, 2015
                                    Version 2023.1 linked Mon Jun  5 13:27:10 2023


 **********************************************************************************************************************************
 LABEL *                                                                                                                                                                 
  (16 PROC) 64 bit serial version                                                        DATE: 03-Aug-23          TIME: 13:09:13  
 **********************************************************************************************************************************

 SHA1:             9738a14712571edd23541b6d7c4f3a3d766f8287
 **********************************************************************************************************************************

 Memory per process:       805 MW
 Total memory per node:   1074 MW
 Total GA space:           268 MW

 GA preallocation disabled
 GA check enabled

 Geometry recognized as XYZ


 Variable memory set to 805.3 MW

 SETTING BASIS          =    CC-PVDZ


 Recomputing integrals since basis changed


 Using spherical harmonics

 Library entry C      S cc-pVDZ              selected for orbital group  1
 Library entry C      P cc-pVDZ              selected for orbital group  1
 Library entry C      D cc-pVDZ              selected for orbital group  1
 Library entry H      S cc-pVDZ              selected for orbital group  2
 Library entry H      P cc-pVDZ              selected for orbital group  2


 PROGRAM * SEWARD (Integral evaluation for generally contracted gaussian basis sets)     Author: Roland Lindh, 1990

 Geometry written to block  1 of record 700


 Point group  C2  



 ATOMIC COORDINATES

 NR  ATOM    CHARGE       X              Y              Z

   1  C       6.00    0.045363443    1.393171295   -0.770613117
   2  C       6.00   -0.045363443   -1.393171295   -0.770613117
   3  C       6.00    1.681200138    2.756985883    0.536216780
   4  C       6.00   -1.681200138   -2.756985883    0.536216780
   5  H       1.00   -1.324174370    2.350862574   -1.954463228
   6  H       1.00    1.324174370   -2.350862574   -1.954463228
   7  H       1.00    1.664819614    4.793715503    0.456241114
   8  H       1.00   -1.664819614   -4.793715503    0.456241114
   9  H       1.00    3.082343998    1.883740039    1.735602141
  10  H       1.00   -3.082343998   -1.883740039    1.735602141

 Bond lengths in Bohr (Angstrom)

 1-2  2.787819290  1-3  2.498750949  1-5  2.048000853  2-4  2.498750949  2-6  2.048000853
     ( 1.475250436)     ( 1.322282058)     ( 1.083755379)     ( 1.322282058)     ( 1.083755379)

  3- 7  2.038365025   3- 9  2.040658635   4- 8  2.038365025   4-10  2.040658635
       ( 1.078656319)       ( 1.079870045)       ( 1.078656319)       ( 1.079870045)

 Bond angles

  1-2-4  124.52840619   1-2-6  116.46249949   1-3-7  121.30407936   1-3-9  121.55561025

  2- 1- 3  124.52840619   2- 1- 5  116.46249949   2- 4- 8  121.30407936   2- 4-10  121.55561025

  3- 1- 5  119.00424334   4- 2- 6  119.00424334   7- 3- 9  117.13947750   8- 4-10  117.13947750

 NUCLEAR CHARGE:                   30
 NUMBER OF PRIMITIVE AOS:         150
 NUMBER OF SYMMETRY AOS:          146
 NUMBER OF CONTRACTIONS:           86   (   43A   +   43B   )
 NUMBER OF INNER CORE ORBITALS:     0   (    0A   +    0B   )
 NUMBER OF OUTER CORE ORBITALS:     4   (    2A   +    2B   )
 NUMBER OF VALENCE ORBITALS:       22   (   11A   +   11B   )


 NUCLEAR REPULSION ENERGY  104.44644798

 Eigenvalues of metric

         1 0.264E-02 0.128E-01 0.179E-01 0.255E-01 0.320E-01 0.378E-01 0.443E-01 0.571E-01
         2 0.252E-02 0.419E-02 0.165E-01 0.237E-01 0.285E-01 0.376E-01 0.449E-01 0.480E-01


 Contracted 2-electron integrals neglected if value below      1.0D-11
 AO integral compression algorithm  1   Integral accuracy      1.0D-11

     19.923 MB (compressed) written to integral file ( 54.8%)


 NUMBER OF SORTED TWO-ELECTRON INTEGRALS:    3580610.     BUFFER LENGTH:  32768
 NUMBER OF SEGMENTS:   1  SEGMENT LENGTH:    3580610      RECORD LENGTH: 524288

 Memory used in sort:       4.14 MW

 SORT1 READ     4526704. AND WROTE     3537941. INTEGRALS IN     11 RECORDS. CPU TIME:     0.05 SEC, REAL TIME:     0.22 SEC
 SORT2 READ     3537941. AND WROTE     3580610. INTEGRALS IN     76 RECORDS. CPU TIME:     0.12 SEC, REAL TIME:     0.14 SEC

 FILE SIZES:   FILE 1:    50.3 MBYTE,  FILE 4:    46.2 MBYTE,   TOTAL:     96.5 MBYTE

 OPERATOR DM      FOR CENTER  0  COORDINATES:    0.000000    0.000000    0.000000


 **********************************************************************************************************************************
 DATASETS  * FILE   NREC   LENGTH (MB)   RECORD NAMES
              1      19       44.14       500      610      700      900      950      970     1000      129      960     1100   
                                          VAR    BASINP    GEOM    SYMINP    ZMAT    AOBASIS   BASIS     P2S    ABASIS      S 
                                         1400     1410     1200     1210     1080     1600     1650     1300     1700   
                                           T        V       H0       H01     AOSYM     SMH    MOLCAS    ERIS     OPER   

 PROGRAMS   *        TOTAL       INT
 CPU TIMES  *         1.60      1.47
 REAL TIME  *         3.74 SEC
 DISK USED  *        92.48 MB
 **********************************************************************************************************************************


 Program * Restricted Hartree-Fock

 Orbital guess generated from atomic densities. Full valence occupancy:   13  13

 Initial occupancy:   8   7

 NELEC=   30   SYM=1   MS2= 0   THRE=1.0D-08   THRD=3.2D-06   THRG=3.2D-06  HFMA2=F  DIIS_START=2   DIIS_MAX=10   DIIS_INCORE=F

 Level shifts:    0.00 (CLOSED)    0.00 (OPEN)    0.30 (GAP_MIN)

 ITER           ETOT              DE          GRAD        DDIFF     DIIS  NEXP   TIME(IT)  TIME(TOT)  DIAG
   1     -154.88079808    -154.88079808     0.00D+00     0.16D+00     0     0       0.02      0.05    start
   2     -154.92056417      -0.03976609     0.69D-02     0.15D-01     1     0       0.03      0.08    diag
   3     -154.92431936      -0.00375519     0.22D-02     0.48D-02     2     0       0.02      0.10    diag
   4     -154.92480051      -0.00048114     0.69D-03     0.18D-02     3     0       0.02      0.12    diag
   5     -154.92480872      -0.00000821     0.97D-04     0.26D-03     4     0       0.03      0.15    diag
   6     -154.92480998      -0.00000126     0.35D-04     0.71D-04     5     0       0.02      0.17    diag
   7     -154.92481020      -0.00000022     0.15D-04     0.32D-04     6     0       0.03      0.20    diag
   8     -154.92481023      -0.00000003     0.44D-05     0.15D-04     7     0       0.02      0.22    fixocc
   9     -154.92481023      -0.00000000     0.10D-05     0.34D-05     8     0       0.03      0.25    diag
  10     -154.92481023      -0.00000000     0.17D-06     0.50D-06     9     0       0.02      0.27    diag/orth
  11     -154.92481023      -0.00000000     0.32D-07     0.74D-07     0     0       0.03      0.30    diag

 Final occupancy:   8   7

 !RHF STATE 1.1 Energy               -154.924810230143
  RHF One-electron energy            -414.310612998870
  RHF Two-electron energy             154.939354785389
  RHF Kinetic energy                  154.837382394027
  RHF Nuclear energy                  104.446447983338
  RHF Virial quotient                  -1.000564642948

 !RHF STATE 1.1 Dipole moment           0.00000000     0.00000000    -0.03443550
 Dipole moment /Debye                   0.00000000     0.00000000    -0.08752630

 Orbital energies:

           1.1          2.1          3.1          4.1          5.1          6.1          7.1          8.1          9.1         10.1
    -11.238775   -11.229040    -1.089832    -0.827601    -0.646679    -0.588011    -0.483583    -0.380496     0.149614     0.216373

           1.2          2.2          3.2          4.2          5.2          6.2          7.2          8.2          9.2
    -11.238046   -11.229032    -1.001048    -0.738691    -0.623613    -0.541770    -0.359734     0.177121     0.229223


 HOMO      7.2    -0.359734 =      -9.7889eV
 LUMO      9.1     0.149614 =       4.0712eV
 LUMO-HOMO         0.509348 =      13.8601eV

 Orbitals saved in record  2100.2


 **********************************************************************************************************************************
 DATASETS  * FILE   NREC   LENGTH (MB)   RECORD NAMES
              1      19       44.14       500      610      700      900      950      970     1000      129      960     1100   
                                          VAR    BASINP    GEOM    SYMINP    ZMAT    AOBASIS   BASIS     P2S    ABASIS      S 
                                         1400     1410     1200     1210     1080     1600     1650     1300     1700   
                                           T        V       H0       H01     AOSYM     SMH    MOLCAS    ERIS     OPER   

              2       4        0.59       700     1000      520     2100   
                                         GEOM     BASIS   MCVARS     RHF  

 PROGRAMS   *        TOTAL    HF-SCF       INT
 CPU TIMES  *         1.90      0.30      1.47
 REAL TIME  *         4.25 SEC
 DISK USED  *        92.48 MB
 **********************************************************************************************************************************


 PROGRAM * MP3 (Closed-shell)     Authors: C. Hampel, H.-J. Werner, 1991, M. Deegan, P.J. Knowles, 1992


 Convergence thresholds:  THRVAR = 1.00D-08  THRDEN = 1.00D-06

 Number of core orbitals:           4 (   2   2 )
 Number of closed-shell orbitals:  11 (   6   5 )
 Number of external orbitals:      71 (  35  36 )

 Molecular orbitals read from record     2100.2  Type=RHF/CANONICAL  

 Number of N-1 electron functions:              11
 Number of N-2 electron functions:              66
 Number of singly external CSFs:               390
 Number of doubly external CSFs:            152881
 Total number of CSFs:                      153272

 Length of J-op  integral file:               0.00 MB
 Length of K-op  integral file:               0.32 MB

 Integral transformation finished. Total CPU:   0.07 sec, npass=  1  Memory used:   0.37 MW

 Reference energy:                   -154.92481023

                        CORR.ENERGY   TOTAL ENERGY   ENERGY CHANGE
 MP2:                   -0.53180521  -155.45661544    -0.53180521

 SCS-MP2 correlation energy:           -0.52982915   (PS=  1.200000  PT=  0.333333)
 SCS-MP2 total energy:               -155.45463938

 MP3(D):                -0.57197530  -155.49678554    -0.04017010



 RESULTS
 =======

  Reference energy                   -154.924810230143
  MP3 singlet pair energy              -0.393000776208
  MP3 triplet pair energy              -0.178974528672
  MP3 correlation energy               -0.571975304880

 !MP3 total energy                   -155.496785535023

 Timing summary (sec):

 STEP                 CPU(USER)    SYS     CPU(TOT)    WALL
 Transformation          0.08      0.01      0.09      0.11
 CCSD iterations         2.39      0.02      2.41      0.24

 Program statistics:

 Available memory in ccsd:               805305876
 Min. memory needed in ccsd:                445155
 Max. memory used in ccsd:                  571223
 Max. memory used in cckext:                623772 ( 1 integral passes)



 **********************************************************************************************************************************
 DATASETS  * FILE   NREC   LENGTH (MB)   RECORD NAMES
              1      20       47.00       500      610      700      900      950      970     1000      129      960     1100   
                                          VAR    BASINP    GEOM    SYMINP    ZMAT    AOBASIS   BASIS     P2S    ABASIS      S 
                                         1400     1410     1200     1210     1080     1600     1650     1300     1700     1380   
                                           T        V       H0       H01     AOSYM     SMH    MOLCAS    ERIS     OPER     JKOP   

              2       4        0.59       700     1000      520     2100   
                                         GEOM     BASIS   MCVARS     RHF  

 PROGRAMS   *        TOTAL       MP3    HF-SCF       INT
 CPU TIMES  *         2.21      0.31      0.30      1.47
 REAL TIME  *         4.64 SEC
 DISK USED  *        92.48 MB
 **********************************************************************************************************************************

 Dump information in style XML to xml output                                                                      

 Orbitals will not be exported.

 **********************************************************************************************************************************

 MP3/cc-pVDZ energy=   -155.496785535023

             MP3          HF-SCF
   -155.49678554   -154.92481023
 **********************************************************************************************************************************
 Molpro calculation terminated
