
 Working directory              : /home/jovyan/scratch/molpro.9i74Wm0oHx/
 Global scratch directory       : /home/jovyan/scratch/molpro.9i74Wm0oHx/
 Wavefunction directory         : /home/jovyan/wfu/
 Main file repository           : /home/jovyan/scratch/molpro.9i74Wm0oHx/

 id        : cardiff

 Nodes                nprocs
 jupyter-c-2efrancisan    1
 GA implementation: MPI file
 GA implementation (serial work in mppx): MPI file

 Using customized tuning parameters: mindgm=1; mindgv=20; mindgc=4; mindgr=1; noblas=0; minvec=7
 default implementation of scratch files=df  


 Variables initialized (1031), CPU time= 0.01 sec
 
 
 
 geometry={
 14
    S   0.98779870405458      1.69086160103578     -0.05066348834743
    N   -1.61020626241202      1.29841557679330     -0.15110636422454
    N   -0.45937754110138     -0.56434099610713      0.46247752051631
    C   -0.39187803613607      0.81146297110409      0.08312164825440
    H   -2.39944662163556      0.68603673671140     -0.07469157169080
    H   -1.71732706237349      2.24968276800537     -0.44737711775701
    H   -0.09355347324586     -0.62431146031493      1.40484970021227
    C   0.35853015001570     -1.43528095502525     -0.38652433348388
    C   0.17576382702346     -2.87823112876741      0.01789791268898
    H   0.02638680315895     -1.29125299608293     -1.41240020244336
    H   1.41001052507674     -1.14570964346512     -0.34147789184360
    H   -0.86056658362450     -3.18390849009666     -0.09862125903260
    H   0.79399441235166     -3.52647688600623     -0.59574030773924
    H   0.46967115884778     -3.03394709778427      1.05528575489050
 }
 basis=cc-pVDZ
 angstrom
 
 
 hf; papt;mp4
 
 
 
 {put,xml;noorbitals,nobasis}
 Commands initialized (841), CPU time= 0.01 sec, 704 directives.
 Default parameters read. Elapsed time= 0.08 sec

 Checking input...
 Passed
1


                                         ***  PROGRAM SYSTEM MOLPRO  ***
                                       Copyright, TTI GmbH Stuttgart, 2015
                                    Version 2023.1 linked Mon Jun  5 13:27:10 2023


 **********************************************************************************************************************************
 LABEL *                                                                                                                                                                 
  (16 PROC) 64 bit serial version                                                        DATE: 03-Aug-23          TIME: 22:38:54  
 **********************************************************************************************************************************

 SHA1:             9738a14712571edd23541b6d7c4f3a3d766f8287
 **********************************************************************************************************************************

 Memory per process:       805 MW
 Total memory per node:   1074 MW
 Total GA space:           268 MW

 GA preallocation disabled
 GA check enabled

 Geometry recognized as XYZ


 Variable memory set to 805.3 MW

 SETTING BASIS          =    CC-PVDZ


 Recomputing integrals since basis changed


 Using spherical harmonics

 Library entry S      S cc-pVDZ              selected for orbital group  1
 Library entry S      P cc-pVDZ              selected for orbital group  1
 Library entry S      D cc-pVDZ              selected for orbital group  1
 Library entry N      S cc-pVDZ              selected for orbital group  2
 Library entry N      P cc-pVDZ              selected for orbital group  2
 Library entry N      D cc-pVDZ              selected for orbital group  2
 Library entry C      S cc-pVDZ              selected for orbital group  3
 Library entry C      P cc-pVDZ              selected for orbital group  3
 Library entry C      D cc-pVDZ              selected for orbital group  3
 Library entry H      S cc-pVDZ              selected for orbital group  4
 Library entry H      P cc-pVDZ              selected for orbital group  4


 PROGRAM * SEWARD (Integral evaluation for generally contracted gaussian basis sets)     Author: Roland Lindh, 1990

 Geometry written to block  1 of record 700


 Point group  C1  



 ATOMIC COORDINATES

 NR  ATOM    CHARGE       X              Y              Z

   1  S      16.00    1.866669017    3.195265341   -0.095740117
   2  N       7.00   -3.042848840    2.453649836   -0.285549644
   3  N       7.00   -0.868097740   -1.066449924    0.873955853
   4  C       6.00   -0.740542163    1.533442776    0.157077150
   5  H       1.00   -4.534296966    1.296421544   -0.141146614
   6  H       1.00   -3.245277814    4.251284299   -0.845420227
   7  H       1.00   -0.176790442   -1.179777676    2.654781180
   8  C       6.00    0.677523791   -2.712287917   -0.730425131
   9  C       6.00    0.332145496   -5.439068557    0.033822153
  10  H       1.00    0.049863831   -2.440114520   -2.669049561
  11  H       1.00    2.664533725   -2.165077444   -0.645299693
  12  H       1.00   -1.626235155   -6.016715052   -0.186367170
  13  H       1.00    1.500431984   -6.664075499   -1.125786023
  14  H       1.00    0.887549859   -5.733329091    1.994201060

 Bond lengths in Bohr (Angstrom)

 1-4  3.102115559  2-4  2.518593963  2-5  1.893263602  2-6  1.893653142  3-4  2.699931026
     ( 1.641568860)     ( 1.332782529)     ( 1.001871952)     ( 1.002078088)     ( 1.428741970)

  3- 7  1.913658226   3- 8  2.769795472   8- 9  2.852839416   8-10  2.055796698   8-11  2.062739470
       ( 1.012664323)       ( 1.465712643)       ( 1.509657606)       ( 1.087880763)       ( 1.091554719)

  9-12  2.053634238   9-13  2.051883635   9-14  2.058676450
       ( 1.086736438)       ( 1.085810059)       ( 1.089404662)

 Bond angles

  1-4-2  123.93384259   1-4-3  125.25406779   2-4-3  110.81207183   3-8-9  110.19536626

  3- 8-10  107.28862889   3- 8-11  110.85488901   4- 2- 5  118.90685175   4- 2- 6  119.76987664

  4-3-7  106.68121101   4-3-8  113.08088762   5-2-6  121.23710752   7-3-8  107.59330572

  8- 9-12  110.82884716   8- 9-13  110.50616541   8- 9-14  111.04235178   9- 8-10  110.01108238

  9- 8-11  111.04653176  10- 8-11  107.33137431  12- 9-13  108.32704282  12- 9-14  108.61262649

 13- 9-14  107.41039509

 NUCLEAR CHARGE:                   56
 NUMBER OF PRIMITIVE AOS:         233
 NUMBER OF SYMMETRY AOS:          227
 NUMBER OF CONTRACTIONS:          128   (  128A   )
 NUMBER OF INNER CORE ORBITALS:     1   (    1A   )
 NUMBER OF OUTER CORE ORBITALS:     9   (    9A   )
 NUMBER OF VALENCE ORBITALS:       32   (   32A   )


 NUCLEAR REPULSION ENERGY  294.60900077


 Eigenvalues of metric

         1 0.315E-02 0.380E-02 0.474E-02 0.588E-02 0.836E-02 0.183E-01 0.204E-01 0.242E-01


 Contracted 2-electron integrals neglected if value below      1.0D-11
 AO integral compression algorithm  1   Integral accuracy      1.0D-11

     132.383 MB (compressed) written to integral file ( 46.3%)


 NUMBER OF SORTED TWO-ELECTRON INTEGRALS:   34084896.     BUFFER LENGTH:  32768
 NUMBER OF SEGMENTS:   3  SEGMENT LENGTH:   15998004      RECORD LENGTH: 524288

 Memory used in sort:      16.56 MW

 SORT1 READ    35843054. AND WROTE    31260994. INTEGRALS IN     91 RECORDS. CPU TIME:     0.44 SEC, REAL TIME:     0.82 SEC
 SORT2 READ    31260994. AND WROTE    34084896. INTEGRALS IN    505 RECORDS. CPU TIME:     0.63 SEC, REAL TIME:     0.81 SEC

 FILE SIZES:   FILE 1:   163.2 MBYTE,  FILE 4:   381.7 MBYTE,   TOTAL:    545.0 MBYTE

 OPERATOR DM      FOR CENTER  0  COORDINATES:    0.000000    0.000000    0.000000


 **********************************************************************************************************************************
 DATASETS  * FILE   NREC   LENGTH (MB)   RECORD NAMES
              1      19      142.47       500      610      700      900      950      970     1000      129      960     1100   
                                          VAR    BASINP    GEOM    SYMINP    ZMAT    AOBASIS   BASIS     P2S    ABASIS      S 
                                         1400     1410     1200     1210     1080     1600     1650     1300     1700   
                                           T        V       H0       H01     AOSYM     SMH    MOLCAS    ERIS     OPER   

 PROGRAMS   *        TOTAL       INT
 CPU TIMES  *         5.51      5.38
 REAL TIME  *         7.66 SEC
 DISK USED  *       520.29 MB
 **********************************************************************************************************************************


 Program * Restricted Hartree-Fock

 Orbital guess generated from atomic densities. Full valence occupancy:   42

 Initial occupancy:  28

 NELEC=   56   SYM=1   MS2= 0   THRE=1.0D-08   THRD=3.2D-06   THRG=3.2D-06  HFMA2=F  DIIS_START=2   DIIS_MAX=10   DIIS_INCORE=F

 Level shifts:    0.00 (CLOSED)    0.00 (OPEN)    0.30 (GAP_MIN)

 ITER           ETOT              DE          GRAD        DDIFF     DIIS  NEXP   TIME(IT)  TIME(TOT)  DIAG
   1     -624.60455844    -624.60455844     0.00D+00     0.11D+00     0     0       0.37      0.75    start
   2     -624.68186727      -0.07730883     0.51D-02     0.14D-01     1     0       0.40      1.15    diag
   3     -624.70224798      -0.02038071     0.26D-02     0.51D-02     2     0       0.38      1.53    diag
   4     -624.70485009      -0.00260211     0.82D-03     0.17D-02     3     0       0.37      1.90    diag
   5     -624.70503299      -0.00018290     0.18D-03     0.45D-03     4     0       0.38      2.28    diag
   6     -624.70505874      -0.00002575     0.61D-04     0.18D-03     5     0       0.38      2.66    diag
   7     -624.70506218      -0.00000344     0.22D-04     0.63D-04     6     0       0.38      3.04    diag
   8     -624.70506259      -0.00000041     0.69D-05     0.24D-04     7     0       0.38      3.42    fixocc
   9     -624.70506262      -0.00000003     0.19D-05     0.60D-05     8     0       0.38      3.80    diag
  10     -624.70506262      -0.00000001     0.70D-06     0.26D-05     9     0       0.37      4.17    diag/orth
  11     -624.70506262      -0.00000000     0.31D-06     0.86D-06     0     0       0.37      4.54    diag

 Final occupancy:  28

 !RHF STATE 1.1 Energy               -624.705062624206
  RHF One-electron energy           -1442.560447452184
  RHF Two-electron energy             523.246384054006
  RHF Kinetic energy                  624.643532149639
  RHF Nuclear energy                  294.609000773972
  RHF Virial quotient                  -1.000098504941

 !RHF STATE 1.1 Dipole moment          -1.31251272    -0.73377484     0.03247475
 Dipole moment /Debye                  -3.33607458    -1.86506961     0.08254258

 Orbital energies:

           1.1          2.1          3.1          4.1          5.1          6.1          7.1          8.1          9.1         10.1
    -91.887103   -15.609673   -15.571415   -11.370196   -11.261148   -11.226624    -8.892455    -6.574905    -6.571934    -6.570753

          11.1         12.1         13.1         14.1         15.1         16.1         17.1         18.1         19.1         20.1
     -1.301606    -1.201415    -1.024219    -0.972029    -0.852596    -0.803407    -0.738675    -0.669215    -0.657921    -0.609711

          21.1         22.1         23.1         24.1         25.1         26.1         27.1         28.1         29.1         30.1
     -0.549423    -0.532583    -0.521251    -0.505803    -0.499491    -0.408856    -0.330263    -0.319169     0.126986     0.173745


 HOMO     28.1    -0.319169 =      -8.6850eV
 LUMO     29.1     0.126986 =       3.4555eV
 LUMO-HOMO         0.446155 =      12.1405eV

 Orbitals saved in record  2100.2


 **********************************************************************************************************************************
 DATASETS  * FILE   NREC   LENGTH (MB)   RECORD NAMES
              1      19      142.47       500      610      700      900      950      970     1000      129      960     1100   
                                          VAR    BASINP    GEOM    SYMINP    ZMAT    AOBASIS   BASIS     P2S    ABASIS      S 
                                         1400     1410     1200     1210     1080     1600     1650     1300     1700   
                                           T        V       H0       H01     AOSYM     SMH    MOLCAS    ERIS     OPER   

              2       4        0.86       700     1000      520     2100   
                                         GEOM     BASIS   MCVARS     RHF  

 PROGRAMS   *        TOTAL    HF-SCF       INT
 CPU TIMES  *        10.06      4.54      5.38
 REAL TIME  *        12.90 SEC
 DISK USED  *       520.29 MB
 **********************************************************************************************************************************


 PROGRAM * PAPT (Closed-shell)     Authors: C. Hampel, H.-J. Werner, 1991, P.J. Knowles, 2021


 Convergence thresholds:  THRVAR = 1.00D-08  THRDEN = 1.00D-06

 Number of core orbitals:          10 (  10 )
 Number of closed-shell orbitals:  18 (  18 )
 Number of external orbitals:     100 ( 100 )

 Molecular orbitals read from record     2100.2  Type=RHF/CANONICAL  

 Number of N-1 electron functions:              18
 Number of N-2 electron functions:             171
 Number of singly external CSFs:              1800
 Number of doubly external CSFs:           1620900
 Total number of CSFs:                     1622701

 Length of J-op  integral file:               0.00 MB
 Length of K-op  integral file:               1.19 MB

 Integral transformation finished. Total CPU:   1.25 sec, npass=  1  Memory used:   4.92 MW

 Reference energy:                   -624.70506262

                        CORR.ENERGY   TOTAL ENERGY   ENERGY CHANGE
 MP2:                   -0.88429726  -625.58935988    -0.88429726

 SCS-MP2 correlation energy:           -0.86741700   (PS=  1.200000  PT=  0.333333)
 SCS-MP2 total energy:               -625.57247963
 Iteration:   1     0.2080D+00
 Iteration:   2     0.8571D+00
 Iteration:   3     0.6059D-01
 Iteration:   4     0.5495D-01
 Iteration:   5     0.4495D-01
 Iteration:   6     0.2422D-01
 Iteration:   7     0.7323D-01
 Iteration:   8     0.9544D-02
 Iteration:   9     0.1385D-01
 Iteration:  10     0.6203D-02
 Iteration:  11     0.3253D-02
 Iteration:  12     0.8475D-01
 Iteration:  13     0.1606D-02
 Iteration:  14     0.1518D-02
 Iteration:  15     0.1457D-02
 Iteration:  16     0.9480D-03
 Iteration:  17     0.4203D-02
 Iteration:  18     0.5748D-03
 Iteration:  19     0.1230D-01
 Iteration:  20     0.2188D-03
 Iteration:  21     0.1450D-02
 Iteration:  22     0.8217D-04
 PAPT operator written to  7000.1
 PAPT orbitals and eigenvalues written to  7000.2

 MP3(D):                -0.93194015  -625.63700277    -0.04764289



 RESULTS
 =======

  Reference energy                   -624.705062624206
  MP3 singlet pair energy              -0.616303208616
  MP3 triplet pair energy              -0.315636942035
  MP3 correlation energy               -0.931940150650

 !MP3 total energy                   -625.637002774856

 Timing summary (sec):

 STEP                 CPU(USER)    SYS     CPU(TOT)    WALL
 Transformation          1.38      0.11      1.49      1.69
 CCSD iterations        29.25      0.30     29.55     19.63

 Program statistics:

 Available memory in ccsd:               805305044
 Min. memory needed in ccsd:               4254900
 Max. memory used in ccsd:                 5671788
 Max. memory used in cckext:               5847357 ( 1 integral passes)



 **********************************************************************************************************************************
 DATASETS  * FILE   NREC   LENGTH (MB)   RECORD NAMES
              1      21      174.94       500      610      700      900      950      970     1000      129      960     1100   
                                          VAR    BASINP    GEOM    SYMINP    ZMAT    AOBASIS   BASIS     P2S    ABASIS      S 
                                         1400     1410     1200     1210     1080     1600     1650     1300     1700     1380   
                                           T        V       H0       H01     AOSYM     SMH    MOLCAS    ERIS     OPER     JKOP   
                                         7000   
                                        PAPT AO    

              2       5        1.33       700     1000      520     2100     7000   
                                         GEOM     BASIS   MCVARS     RHF     PAPT   

 PROGRAMS   *        TOTAL      PAPT    HF-SCF       INT
 CPU TIMES  *        30.39     20.33      4.54      5.38
 REAL TIME  *        34.28 SEC
 DISK USED  *       520.29 MB
 **********************************************************************************************************************************


 PROGRAM * MP4 (Closed-shell)     Authors: C. Hampel, H.-J. Werner, 1991, M. Deegan, P.J. Knowles, 1992


 Convergence thresholds:  THRVAR = 1.00D-08  THRDEN = 1.00D-06

 MP4(T)     terms to be evaluated (factor= 0.000)


 Number of core orbitals:          10 (  10 )
 Number of closed-shell orbitals:  18 (  18 )
 Number of external orbitals:     100 ( 100 )

 Molecular orbitals read from record     7000.2  Type=PAPT/CANONICAL (state 1.1)

 Number of N-1 electron functions:              18
 Number of N-2 electron functions:             171
 Number of singly external CSFs:              1800
 Number of doubly external CSFs:           1620900
 Total number of CSFs:                     1622701

 Length of J-op  integral file:               0.00 MB
 Length of K-op  integral file:               1.19 MB

 Memory could be reduced to 24.68 Mwords without degradation in triples

 Integral transformation finished. Total CPU:   2.68 sec, npass=  1  Memory used:  25.00 MW
 Orbital energies read from record       7000.2  Type=PAPT/CANONICAL (state 1.1)

 Reference energy:                   -624.70506262

                        CORR.ENERGY   TOTAL ENERGY   ENERGY CHANGE
 MP2:                   -0.94158302  -625.64664564    -0.94158302

 SCS-MP2 correlation energy:           -0.92906203   (PS=  1.200000  PT=  0.333333)
 SCS-MP2 total energy:               -625.63412465

 MP3(D):                -0.94197938  -625.64704200    -0.00039637
 MP4(DQ):               -0.93478244  -625.63984507     0.00719694
 MP4(SDQ):              -0.94247897  -625.64754159    -0.00769653

 Norm of t1 vector:      0.08449810      S-energy:    -0.00769653      T1 diagnostic:  0.00995820

 Largest off-diagonal element in interal  block of Fock matrix:  0.76D-01
 Largest off-diagonal element in external block of Fock matrix:  0.12D+00


 Total CPU time for triples:    109.64 sec


 RESULTS
 =======

  Reference energy                   -624.705062624206
  MP4(SDQ) singlet pair energy         -0.620146916316
  MP4(SDQ) triplet pair energy         -0.314635525627
  MP4(SDQ) correlation energy          -0.942478969907

  Triples contribution                 -0.035595334456
  Total correlation energy             -0.978074304364

  MP4(SDQ) total energy              -625.647541594113
 !MP4(SDTQ) total energy             -625.683136928569

 Timing summary (sec):

 STEP                 CPU(USER)    SYS     CPU(TOT)    WALL
 Transformation          3.18      0.29      3.47      3.76
 CCSD iterations        42.98      0.27     43.25     12.78
 Triples               109.64      3.83    113.47    114.55

 Program statistics:

 Available memory in ccsd:               805305044
 Min. memory needed in ccsd:               4254900
 Max. memory used in ccsd:                 5671788
 Max. memory used in cckext:               5847357 ( 1 integral passes)



 **********************************************************************************************************************************
 DATASETS  * FILE   NREC   LENGTH (MB)   RECORD NAMES
              1      22      244.29       500      610      700      900      950      970     1000      129      960     1100   
                                          VAR    BASINP    GEOM    SYMINP    ZMAT    AOBASIS   BASIS     P2S    ABASIS      S 
                                         1400     1410     1200     1210     1080     1600     1650     1300     1700     1380   
                                           T        V       H0       H01     AOSYM     SMH    MOLCAS    ERIS     OPER     JKOP   
                                         7000     1380(1)
                                        PAPT AO   JKOP   

              2       5        1.33       700     1000      520     2100     7000   
                                         GEOM     BASIS   MCVARS     RHF     PAPT   

 PROGRAMS   *        TOTAL       MP4      PAPT    HF-SCF       INT
 CPU TIMES  *       155.57    125.17     20.33      4.54      5.38
 REAL TIME  *       165.52 SEC
 DISK USED  *       520.29 MB
 **********************************************************************************************************************************

 Dump information in style XML to xml output                                                                      

 Orbitals will not be exported.

 **********************************************************************************************************************************

 MP4/cc-pVDZ energy=   -625.683136928569

             MP4            PAPT          HF-SCF
   -625.68313693   -625.63700277   -624.70506262
 **********************************************************************************************************************************
 Molpro calculation terminated
