
 Working directory              : /home/jovyan/scratch/molpro.oFupyfhgLy/
 Global scratch directory       : /home/jovyan/scratch/molpro.oFupyfhgLy/
 Wavefunction directory         : /home/jovyan/wfu/
 Main file repository           : /home/jovyan/scratch/molpro.oFupyfhgLy/

 id        : cardiff

 Nodes                nprocs
 jupyter-c-2efrancisan    1
 GA implementation: MPI file
 GA implementation (serial work in mppx): MPI file

 Using customized tuning parameters: mindgm=1; mindgv=20; mindgc=4; mindgr=1; noblas=0; minvec=7
 default implementation of scratch files=df  


 Variables initialized (1031), CPU time= 0.01 sec
 
 
 
 geometry={
            4
     N         -1.04378426     -0.09487228      0.00000000
     H         -0.65570104     -1.04047940      0.00000000
     H         -0.65567745      0.37796757      0.81892116
     H         -0.65567745      0.37796757     -0.81892116
 }
 basis=cc-pVTZ
 angstrom
 
 
 hf; ccsd
 
 
 
 {put,xml;noorbitals,nobasis}
 Commands initialized (841), CPU time= 0.01 sec, 704 directives.
 Default parameters read. Elapsed time= 0.08 sec

 Checking input...
 Passed
1


                                         ***  PROGRAM SYSTEM MOLPRO  ***
                                       Copyright, TTI GmbH Stuttgart, 2015
                                    Version 2023.1 linked Mon Jun  5 13:27:10 2023


 **********************************************************************************************************************************
 LABEL *                                                                                                                                                                 
  (16 PROC) 64 bit serial version                                                        DATE: 03-Aug-23          TIME: 17:55:38  
 **********************************************************************************************************************************

 SHA1:             9738a14712571edd23541b6d7c4f3a3d766f8287
 **********************************************************************************************************************************

 Memory per process:       805 MW
 Total memory per node:   1074 MW
 Total GA space:           268 MW

 GA preallocation disabled
 GA check enabled

 Geometry recognized as XYZ


 Variable memory set to 805.3 MW

 SETTING BASIS          =    CC-PVTZ


 Recomputing integrals since basis changed


 Using spherical harmonics

 Library entry N      S cc-pVTZ              selected for orbital group  1
 Library entry N      P cc-pVTZ              selected for orbital group  1
 Library entry N      D cc-pVTZ              selected for orbital group  1
 Library entry N      F cc-pVTZ              selected for orbital group  1
 Library entry H      S cc-pVTZ              selected for orbital group  2
 Library entry H      P cc-pVTZ              selected for orbital group  2
 Library entry H      D cc-pVTZ              selected for orbital group  2


 PROGRAM * SEWARD (Integral evaluation for generally contracted gaussian basis sets)     Author: Roland Lindh, 1990

 Geometry written to block  1 of record 700


 Point group  Cs  



 ATOMIC COORDINATES

 NR  ATOM    CHARGE       X              Y              Z

   1  N       7.00   -1.972466385   -0.179282626    0.000000000
   2  H       1.00   -1.239095385   -1.966221104    0.000000000
   3  H       1.00   -1.239050807    0.714255191    1.547536710
   4  H       1.00   -1.239050807    0.714255191   -1.547536710

 Bond lengths in Bohr (Angstrom)

 1-2  1.931575043  1-3  1.931625769  1-4  1.931625769
     ( 1.022145494)     ( 1.022172337)     ( 1.022172337)

 Bond angles

  2-1-3  106.48634507   2-1-4  106.48634507   3-1-4  106.48157974

 NUCLEAR CHARGE:                   10
 NUMBER OF PRIMITIVE AOS:          98
 NUMBER OF SYMMETRY AOS:           90
 NUMBER OF CONTRACTIONS:           72   (   44A'  +   28A"  )
 NUMBER OF INNER CORE ORBITALS:     0   (    0A'  +    0A"  )
 NUMBER OF OUTER CORE ORBITALS:     1   (    1A'  +    0A"  )
 NUMBER OF VALENCE ORBITALS:        7   (    5A'  +    2A"  )


 NUCLEAR REPULSION ENERGY   11.84103699

 Eigenvalues of metric

         1 0.168E-02 0.403E-02 0.408E-02 0.886E-02 0.132E-01 0.331E-01 0.392E-01 0.436E-01
         2 0.403E-02 0.886E-02 0.392E-01 0.436E-01 0.731E-01 0.890E-01 0.142E+00 0.173E+00


 Contracted 2-electron integrals neglected if value below      1.0D-11
 AO integral compression algorithm  1   Integral accuracy      1.0D-11

     10.748 MB (compressed) written to integral file ( 55.7%)


 NUMBER OF SORTED TWO-ELECTRON INTEGRALS:    1778986.     BUFFER LENGTH:  32768
 NUMBER OF SEGMENTS:   1  SEGMENT LENGTH:    1778986      RECORD LENGTH: 524288

 Memory used in sort:       2.34 MW

 SORT1 READ     2383562. AND WROTE     1697773. INTEGRALS IN      5 RECORDS. CPU TIME:     0.02 SEC, REAL TIME:     0.07 SEC
 SORT2 READ     1697773. AND WROTE     1778986. INTEGRALS IN     41 RECORDS. CPU TIME:     0.07 SEC, REAL TIME:     0.09 SEC

 FILE SIZES:   FILE 1:    40.9 MBYTE,  FILE 4:    21.0 MBYTE,   TOTAL:     62.0 MBYTE

 OPERATOR DM      FOR CENTER  0  COORDINATES:    0.000000    0.000000    0.000000


 **********************************************************************************************************************************
 DATASETS  * FILE   NREC   LENGTH (MB)   RECORD NAMES
              1      19       36.39       500      610      700      900      950      970     1000      129      960     1100   
                                          VAR    BASINP    GEOM    SYMINP    ZMAT    AOBASIS   BASIS     P2S    ABASIS      S 
                                         1400     1410     1200     1210     1080     1600     1650     1300     1700   
                                           T        V       H0       H01     AOSYM     SMH    MOLCAS    ERIS     OPER   

 PROGRAMS   *        TOTAL       INT
 CPU TIMES  *         0.81      0.68
 REAL TIME  *         1.98 SEC
 DISK USED  *        59.47 MB
 **********************************************************************************************************************************


 Program * Restricted Hartree-Fock

 Orbital guess generated from atomic densities. Full valence occupancy:    6   2

 Initial occupancy:   4   1

 NELEC=   10   SYM=1   MS2= 0   THRE=1.0D-08   THRD=3.2D-06   THRG=3.2D-06  HFMA2=F  DIIS_START=2   DIIS_MAX=10   DIIS_INCORE=F

 Level shifts:    0.00 (CLOSED)    0.00 (OPEN)    0.30 (GAP_MIN)

 ITER           ETOT              DE          GRAD        DDIFF     DIIS  NEXP   TIME(IT)  TIME(TOT)  DIAG
   1      -56.19159365     -56.19159365     0.00D+00     0.11D+00     0     0       0.01      0.02    start
   2      -56.21207121      -0.02047756     0.12D-01     0.16D-01     1     0       0.02      0.04    diag
   3      -56.21673992      -0.00466871     0.58D-02     0.51D-02     2     0       0.01      0.05    diag
   4      -56.21696282      -0.00022290     0.88D-03     0.10D-02     3     0       0.01      0.06    diag
   5      -56.21697727      -0.00001444     0.21D-03     0.27D-03     4     0       0.02      0.08    diag
   6      -56.21697788      -0.00000061     0.35D-04     0.68D-04     5     0       0.01      0.09    diag
   7      -56.21697791      -0.00000003     0.68D-05     0.17D-04     6     0       0.02      0.11    diag
   8      -56.21697791      -0.00000000     0.15D-05     0.35D-05     7     0       0.01      0.12    fixocc
   9      -56.21697791      -0.00000000     0.23D-06     0.65D-06     8     0       0.01      0.13    diag
  10      -56.21697791      -0.00000000     0.53D-07     0.89D-07     0     0       0.02      0.15    diag/orth

 Final occupancy:   4   1

 !RHF STATE 1.1 Energy                -56.216977907091
  RHF One-electron energy             -99.446478414074
  RHF Two-electron energy              31.388463512445
  RHF Kinetic energy                   56.107803914528
  RHF Nuclear energy                   11.841036994538
  RHF Virial quotient                  -1.001945789800

 !RHF STATE 1.1 Dipole moment           0.65271748     0.00001218     0.00000000
 Dipole moment /Debye                   1.65904236     0.00003096     0.00000000

 Orbital energies:

           1.1          2.1          3.1          4.1          5.1          6.1
    -15.537260    -1.132658    -0.619230    -0.426419     0.136405     0.216293

           1.2          2.2          3.2
     -0.619209     0.216294     0.476403


 HOMO      4.1    -0.426419 =     -11.6035eV
 LUMO      5.1     0.136405 =       3.7118eV
 LUMO-HOMO         0.562824 =      15.3152eV

 Orbitals saved in record  2100.2


 **********************************************************************************************************************************
 DATASETS  * FILE   NREC   LENGTH (MB)   RECORD NAMES
              1      19       36.39       500      610      700      900      950      970     1000      129      960     1100   
                                          VAR    BASINP    GEOM    SYMINP    ZMAT    AOBASIS   BASIS     P2S    ABASIS      S 
                                         1400     1410     1200     1210     1080     1600     1650     1300     1700   
                                           T        V       H0       H01     AOSYM     SMH    MOLCAS    ERIS     OPER   

              2       4        0.47       700     1000      520     2100   
                                         GEOM     BASIS   MCVARS     RHF  

 PROGRAMS   *        TOTAL    HF-SCF       INT
 CPU TIMES  *         0.96      0.15      0.68
 REAL TIME  *         2.20 SEC
 DISK USED  *        59.47 MB
 **********************************************************************************************************************************


 PROGRAM * CCSD (Closed-shell coupled cluster)     Authors: C. Hampel, H.-J. Werner, 1991, M. Deegan, P.J. Knowles, 1992


 Convergence thresholds:  THRVAR = 1.00D-08  THRDEN = 1.00D-06

 Number of core orbitals:           1 (   1   0 )
 Number of closed-shell orbitals:   4 (   3   1 )
 Number of external orbitals:      67 (  40  27 )

 Molecular orbitals read from record     2100.2  Type=RHF/CANONICAL  

 Number of N-1 electron functions:               4
 Number of N-2 electron functions:              10
 Number of singly external CSFs:               147
 Number of doubly external CSFs:             18259
 Total number of CSFs:                       18407

 Length of J-op  integral file:               0.00 MB
 Length of K-op  integral file:               0.25 MB
 Length of 3-ext integral record:             0.00 MB

 Integral transformation finished. Total CPU:   0.03 sec, npass=  1  Memory used:   0.40 MW

 Reference energy:                    -56.21697791

 MP2 singlet pair energy:              -0.15757821
 MP2 triplet pair energy:              -0.07810726
 MP2 correlation energy:               -0.23568547
 MP2 total energy:                    -56.45266337

 SCS-MP2 correlation energy:           -0.23769392   (PS=  1.200000  PT=  0.333333)
 SCS-MP2 total energy:                -56.45467183

 ITER.      SQ.NORM     CORR.ENERGY   TOTAL ENERGY   ENERGY CHANGE        DEN1      VAR(S)    VAR(P)  DIIS     TIME  TIME/IT
   1      1.06990709    -0.24739094   -56.46436884    -0.01170547    -0.00650472  0.41D-03  0.92D-03  1  1     1.34     0.06
   2      1.07401068    -0.24815150   -56.46512941    -0.00076056    -0.00495614  0.15D-04  0.92D-04  2  2     1.38     0.05
   3      1.07529853    -0.24823813   -56.46521604    -0.00008663    -0.00091091  0.11D-05  0.55D-05  3  3     1.42     0.05
   4      1.07562842    -0.24825391   -56.46523181    -0.00001577    -0.00017556  0.23D-06  0.26D-06  4  4     1.46     0.05
   5      1.07567518    -0.24825360   -56.46523150     0.00000031    -0.00001765  0.53D-07  0.19D-07  5  5     1.50     0.05
   6      1.07568171    -0.24825312   -56.46523103     0.00000047    -0.00000282  0.14D-07  0.19D-08  6  6     1.54     0.05
   7      1.07568497    -0.24825336   -56.46523127    -0.00000024    -0.00000012  0.18D-08  0.48D-09  6  1     1.58     0.05

 Norm of t1 vector:      0.02479486      S-energy:    -0.00000012      T1 diagnostic:  0.00619872
                                                                       D1 diagnostic:  0.00998460
                                                                       D2 diagnostic:  0.13177826 (internal)


 RESULTS
 =======

  Reference energy                    -56.216977907091
  CCSD singlet pair energy             -0.177009914591
  CCSD triplet pair energy             -0.071243333259
  CCSD correlation energy              -0.248253362868

 !CCSD total energy                   -56.465231269959

 Timing summary (sec):

 STEP                 CPU(USER)    SYS     CPU(TOT)    WALL
 Transformation          0.03      0.02      0.05      0.15
 CCSD iterations         1.55      0.03      1.58      0.34

 Program statistics:

 Available memory in ccsd:               805306300
 Min. memory needed in ccsd:                 89533
 Max. memory used in ccsd:                  101839
 Max. memory used in cckext:                156626 ( 7 integral passes)



 **********************************************************************************************************************************
 DATASETS  * FILE   NREC   LENGTH (MB)   RECORD NAMES
              1      20       39.08       500      610      700      900      950      970     1000      129      960     1100   
                                          VAR    BASINP    GEOM    SYMINP    ZMAT    AOBASIS   BASIS     P2S    ABASIS      S 
                                         1400     1410     1200     1210     1080     1600     1650     1300     1700     1380   
                                           T        V       H0       H01     AOSYM     SMH    MOLCAS    ERIS     OPER     JKOP   

              2       4        0.47       700     1000      520     2100   
                                         GEOM     BASIS   MCVARS     RHF  

 PROGRAMS   *        TOTAL      CCSD    HF-SCF       INT
 CPU TIMES  *         1.31      0.35      0.15      0.68
 REAL TIME  *         2.73 SEC
 DISK USED  *        59.47 MB
 **********************************************************************************************************************************

 Dump information in style XML to xml output                                                                      

 Orbitals will not be exported.

 **********************************************************************************************************************************

 CCSD/cc-pVTZ energy=    -56.465231269959

            CCSD          HF-SCF
    -56.46523127    -56.21697791
 **********************************************************************************************************************************
 Molpro calculation terminated
