
 Working directory              : /home/jovyan/scratch/molpro.Hh9Mzh0PMA/
 Global scratch directory       : /home/jovyan/scratch/molpro.Hh9Mzh0PMA/
 Wavefunction directory         : /home/jovyan/wfu/
 Main file repository           : /home/jovyan/scratch/molpro.Hh9Mzh0PMA/

 id        : cardiff

 Nodes                nprocs
 jupyter-c-2efrancisan    1
 GA implementation: MPI file
 GA implementation (serial work in mppx): MPI file

 Using customized tuning parameters: mindgm=1; mindgv=20; mindgc=4; mindgr=1; noblas=0; minvec=7
 default implementation of scratch files=df  


 Variables initialized (1031), CPU time= 0.01 sec
 
 
 
 geometry={
           13
     C         -0.01452154     -0.75798489      1.30942047
     C         -0.01452154     -0.75798489     -1.30942047
     C         -0.01452154      0.65683562      1.21164043
     C         -0.01452154      0.65683562     -1.21164043
     C         -0.17284160      1.33447586      0.00000000
     H          0.46798863     -1.05717499      0.00000000
     H          0.48511863     -1.18468504      2.18168078
     H          0.48511863     -1.18468504     -2.18168078
     H         -0.92708187     -1.30284508      1.06870038
     H         -0.92708187     -1.30284508     -1.06870038
     H          0.37512860      1.24016583      2.04603073
     H          0.37512860      1.24016583     -2.04603073
     H         -0.10339158      2.41972625      0.00000000
 }
 basis=cc-pVTZ
 angstrom
 
 
 hf; papt;mp4
 
 
 
 {put,xml;noorbitals,nobasis}
 Commands initialized (841), CPU time= 0.01 sec, 704 directives.
 Default parameters read. Elapsed time= 0.09 sec

 Checking input...
 Passed
1


                                         ***  PROGRAM SYSTEM MOLPRO  ***
                                       Copyright, TTI GmbH Stuttgart, 2015
                                    Version 2023.1 linked Mon Jun  5 13:27:10 2023


 **********************************************************************************************************************************
 LABEL *                                                                                                                                                                 
  (16 PROC) 64 bit serial version                                                        DATE: 03-Aug-23          TIME: 11:07:15  
 **********************************************************************************************************************************

 SHA1:             9738a14712571edd23541b6d7c4f3a3d766f8287
 **********************************************************************************************************************************

 Memory per process:       805 MW
 Total memory per node:   1074 MW
 Total GA space:           268 MW

 GA preallocation disabled
 GA check enabled

 Geometry recognized as XYZ


 Variable memory set to 805.3 MW

 SETTING BASIS          =    CC-PVTZ


 Recomputing integrals since basis changed


 Using spherical harmonics

 Library entry C      S cc-pVTZ              selected for orbital group  1
 Library entry C      P cc-pVTZ              selected for orbital group  1
 Library entry C      D cc-pVTZ              selected for orbital group  1
 Library entry C      F cc-pVTZ              selected for orbital group  1
 Library entry H      S cc-pVTZ              selected for orbital group  2
 Library entry H      P cc-pVTZ              selected for orbital group  2
 Library entry H      D cc-pVTZ              selected for orbital group  2


 PROGRAM * SEWARD (Integral evaluation for generally contracted gaussian basis sets)     Author: Roland Lindh, 1990

 Geometry written to block  1 of record 700


 Point group  Cs  



 ATOMIC COORDINATES

 NR  ATOM    CHARGE       X              Y              Z

   1  C       6.00   -0.027441734   -1.432383849    2.474446070
   2  C       6.00   -0.027441734   -1.432383849   -2.474446070
   3  C       6.00   -0.027441734    1.241239431    2.289668574
   4  C       6.00   -0.027441734    1.241239431   -2.289668574
   5  C       6.00   -0.326623287    2.521793895    0.000000000
   6  H       1.00    0.884370340   -1.997771197    0.000000000
   7  H       1.00    0.916741349   -2.238730270    4.122779166
   8  H       1.00    0.916741349   -2.238730270   -4.122779166
   9  H       1.00   -1.751930829   -2.462020384    2.019551027
  10  H       1.00   -1.751930829   -2.462020384   -2.019551027
  11  H       1.00    0.708890316    2.343573768    3.866437722
  12  H       1.00    0.708890316    2.343573768   -3.866437722
  13  H       1.00   -0.195381770    4.572619909    0.000000000

 Bond lengths in Bohr (Angstrom)

 1-3  2.680000777  1-6  2.697025670  1-7  2.063656521  1-9  2.059355126  2-4  2.680000777
     ( 1.418195336)     ( 1.427204522)     ( 1.092040002)     ( 1.089763802)     ( 1.418195336)

  2- 6  2.697025670   2- 8  2.063656521   2-10  2.059355126   3- 5  2.640437751   3-11  2.059982239
       ( 1.427204522)       ( 1.092040002)       ( 1.089763802)       ( 1.397259485)       ( 1.090095656)

  4- 5  2.640437751   4-12  2.059982239   5-13  2.055021089
       ( 1.397259485)       ( 1.090095656)       ( 1.087470328)

 Bond angles

  1- 3- 5  122.92983423   1- 3-11  118.75538171   1- 6- 2  133.11857628   2- 4- 5  122.92983423

  2- 4-12  118.75538171   3- 1- 6   98.38812662   3- 1- 7  116.41551821   3- 1- 9  118.91820303

  3- 5- 4  120.25937359   3- 5-13  118.47347191   4- 2- 6   98.38812662   4- 2- 8  116.41551821

  4- 2-10  118.91820303   4- 5-13  118.47347191   5- 3-11  116.40579220   5- 4-12  116.40579220

  6- 1- 7  119.75102425   6- 1- 9   88.60364094   6- 2- 8  119.75102425   6- 2-10   88.60364094

  7- 1- 9  111.35879906   8- 2-10  111.35879906

 NUCLEAR CHARGE:                   38
 NUMBER OF PRIMITIVE AOS:         371
 NUMBER OF SYMMETRY AOS:          338
 NUMBER OF CONTRACTIONS:          262   (  142A'  +  120A"  )
 NUMBER OF INNER CORE ORBITALS:     0   (    0A'  +    0A"  )
 NUMBER OF OUTER CORE ORBITALS:     5   (    3A'  +    2A"  )
 NUMBER OF VALENCE ORBITALS:       28   (   16A'  +   12A"  )


 NUCLEAR REPULSION ENERGY  164.15366010


 Eigenvalues of metric

         1 0.244E-03 0.826E-03 0.971E-03 0.128E-02 0.147E-02 0.157E-02 0.164E-02 0.194E-02
         2 0.453E-03 0.656E-03 0.105E-02 0.128E-02 0.134E-02 0.155E-02 0.191E-02 0.366E-02


 Contracted 2-electron integrals neglected if value below      1.0D-11
 AO integral compression algorithm  1   Integral accuracy      1.0D-11

     1269.301 MB (compressed) written to integral file ( 47.2%)


 NUMBER OF SORTED TWO-ELECTRON INTEGRALS:  299036551.     BUFFER LENGTH:  32768
 NUMBER OF SEGMENTS:  19  SEGMENT LENGTH:   15999503      RECORD LENGTH: 524288

 Memory used in sort:      16.56 MW

 SORT1 READ   336297689. AND WROTE   281955423. INTEGRALS IN    818 RECORDS. CPU TIME:     5.12 SEC, REAL TIME:     7.36 SEC
 SORT2 READ   281955423. AND WROTE   299036551. INTEGRALS IN   4842 RECORDS. CPU TIME:     5.69 SEC, REAL TIME:     7.08 SEC

 FILE SIZES:   FILE 1:  1301.2 MBYTE,  FILE 4:  3431.0 MBYTE,   TOTAL:   4732.2 MBYTE

 OPERATOR DM      FOR CENTER  0  COORDINATES:    0.000000    0.000000    0.000000


 **********************************************************************************************************************************
 DATASETS  * FILE   NREC   LENGTH (MB)   RECORD NAMES
              1      19     1153.05       500      610      700      900      950      970     1000      129      960     1100   
                                          VAR    BASINP    GEOM    SYMINP    ZMAT    AOBASIS   BASIS     P2S    ABASIS      S 
                                         1400     1410     1200     1210     1080     1600     1650     1300     1700   
                                           T        V       H0       H01     AOSYM     SMH    MOLCAS    ERIS     OPER   

 PROGRAMS   *        TOTAL       INT
 CPU TIMES  *        39.81     39.68
 REAL TIME  *        46.95 SEC
 DISK USED  *         4.41 GB
 **********************************************************************************************************************************


 Program * Restricted Hartree-Fock

 Orbital guess generated from atomic densities. Full valence occupancy:   19  14

 Initial occupancy:  11   8

 NELEC=   38   SYM=1   MS2= 0   THRE=1.0D-08   THRD=3.2D-06   THRG=3.2D-06  HFMA2=F  DIIS_START=2   DIIS_MAX=10   DIIS_INCORE=F

 Level shifts:    0.00 (CLOSED)    0.00 (OPEN)    0.30 (GAP_MIN)

 ITER           ETOT              DE          GRAD        DDIFF     DIIS  NEXP   TIME(IT)  TIME(TOT)  DIAG
   1     -193.87178105    -193.87178105     0.00D+00     0.63D-01     0     0       2.15      4.19    start
   2     -193.92410691      -0.05232586     0.39D-02     0.59D-02     1     0       2.13      6.32    diag
   3     -193.93092634      -0.00681943     0.16D-02     0.18D-02     2     0       2.06      8.38    diag
   4     -193.93211761      -0.00119127     0.55D-03     0.78D-03     3     0       2.07     10.45    diag
   5     -193.93218001      -0.00006239     0.14D-03     0.19D-03     4     0       2.07     12.52    diag
   6     -193.93219043      -0.00001043     0.42D-04     0.82D-04     5     0       2.09     14.61    diag
   7     -193.93219229      -0.00000186     0.16D-04     0.29D-04     6     0       2.07     16.68    diag
   8     -193.93219286      -0.00000057     0.68D-05     0.19D-04     7     0       2.08     18.76    fixocc
   9     -193.93219297      -0.00000011     0.27D-05     0.85D-05     8     0       2.10     20.86    diag
  10     -193.93219299      -0.00000002     0.12D-05     0.38D-05     9     0       2.11     22.97    diag/orth
  11     -193.93219299      -0.00000000     0.39D-06     0.10D-05     9     0       2.09     25.06    diag
  12     -193.93219299      -0.00000000     0.13D-06     0.21D-06     0     0       2.09     27.15    diag

 Final occupancy:  11   8

 !RHF STATE 1.1 Energy               -193.932192987927
  RHF One-electron energy            -585.435524308308
  RHF Two-electron energy             227.349671220048
  RHF Kinetic energy                  193.575965568260
  RHF Nuclear energy                  164.153660100333
  RHF Virial quotient                  -1.001840246121

 !RHF STATE 1.1 Dipole moment           0.08464527     0.01186151     0.00000000
 Dipole moment /Debye                   0.21514683     0.03014894     0.00000000

 Orbital energies:

           1.1          2.1          3.1          4.1          5.1          6.1          7.1          8.1          9.1         10.1
    -11.242771   -11.228328   -11.228060    -1.112792    -0.939371    -0.723915    -0.674401    -0.566997    -0.531924    -0.516394

          11.1         12.1         13.1
     -0.352943     0.142539     0.156814

           1.2          2.2          3.2          4.2          5.2          6.2          7.2          8.2          9.2         10.2
    -11.242733   -11.228323    -1.005068    -0.806583    -0.589433    -0.577351    -0.497892    -0.302816     0.101171     0.174357


 HOMO      8.2    -0.302816 =      -8.2400eV
 LUMO      9.2     0.101171 =       2.7530eV
 LUMO-HOMO         0.403986 =      10.9930eV

 Orbitals saved in record  2100.2


 **********************************************************************************************************************************
 DATASETS  * FILE   NREC   LENGTH (MB)   RECORD NAMES
              1      19     1153.05       500      610      700      900      950      970     1000      129      960     1100   
                                          VAR    BASINP    GEOM    SYMINP    ZMAT    AOBASIS   BASIS     P2S    ABASIS      S 
                                         1400     1410     1200     1210     1080     1600     1650     1300     1700   
                                           T        V       H0       H01     AOSYM     SMH    MOLCAS    ERIS     OPER   

              2       4        1.15       700     1000      520     2100   
                                         GEOM     BASIS   MCVARS     RHF  

 PROGRAMS   *        TOTAL    HF-SCF       INT
 CPU TIMES  *        66.97     27.15     39.68
 REAL TIME  *        77.95 SEC
 DISK USED  *         4.41 GB
 **********************************************************************************************************************************


 PROGRAM * PAPT (Closed-shell)     Authors: C. Hampel, H.-J. Werner, 1991, P.J. Knowles, 2021


 Convergence thresholds:  THRVAR = 1.00D-08  THRDEN = 1.00D-06

 Number of core orbitals:           5 (   3   2 )
 Number of closed-shell orbitals:  14 (   8   6 )
 Number of external orbitals:     243 ( 131 112 )

 Molecular orbitals read from record     2100.2  Type=RHF/CANONICAL  

 Number of N-1 electron functions:              14
 Number of N-2 electron functions:             105
 Number of singly external CSFs:              1720
 Number of doubly external CSFs:           2895463
 Total number of CSFs:                     2897184

 Length of J-op  integral file:               0.00 MB
 Length of K-op  integral file:               2.44 MB

 Integral transformation finished. Total CPU:   4.99 sec, npass=  1  Memory used:   4.52 MW

 Reference energy:                   -193.93219299

                        CORR.ENERGY   TOTAL ENERGY   ENERGY CHANGE
 MP2:                   -0.86641424  -194.79860723    -0.86641424

 SCS-MP2 correlation energy:           -0.85859444   (PS=  1.200000  PT=  0.333333)
 SCS-MP2 total energy:               -194.79078743
 Iteration:   1     0.3001D+00
 Iteration:   2     0.5237D+00
 Iteration:   3     0.8690D-01
 Iteration:   4     0.1248D+00
 Iteration:   5     0.3257D-01
 Iteration:   6     0.2266D-01
 Iteration:   7     0.2978D-01
 Iteration:   8     0.4719D-02
 Iteration:   9     0.6461D-02
 Iteration:  10     0.1542D-02
 Iteration:  11     0.8032D-03
 Iteration:  12     0.3917D-02
 Iteration:  13     0.2297D-03
 Iteration:  14     0.3480D-03
 Iteration:  15     0.1576D-03
 Iteration:  16     0.6480D-04
 PAPT operator written to  7000.1
 PAPT orbitals and eigenvalues written to  7000.2

 MP3(D):                -0.89540796  -194.82760095    -0.02899373



 RESULTS
 =======

  Reference energy                   -193.932192987927
  MP3 singlet pair energy              -0.603948569740
  MP3 triplet pair energy              -0.291459394472
  MP3 correlation energy               -0.895407964212

 !MP3 total energy                   -194.827600952139

 Timing summary (sec):

 STEP                 CPU(USER)    SYS     CPU(TOT)    WALL
 Transformation          5.16      0.40      5.56      5.83
 CCSD iterations        85.71      0.68     86.39     19.84

 Program statistics:

 Available memory in ccsd:               805305573
 Min. memory needed in ccsd:               7275480
 Max. memory used in ccsd:                 9897905
 Max. memory used in cckext:               9941714 ( 1 integral passes)



 **********************************************************************************************************************************
 DATASETS  * FILE   NREC   LENGTH (MB)   RECORD NAMES
              1      21     1195.04       500      610      700      900      950      970     1000      129      960     1100   
                                          VAR    BASINP    GEOM    SYMINP    ZMAT    AOBASIS   BASIS     P2S    ABASIS      S 
                                         1400     1410     1200     1210     1080     1600     1650     1300     1700     1380   
                                           T        V       H0       H01     AOSYM     SMH    MOLCAS    ERIS     OPER     JKOP   
                                         7000   
                                        PAPT AO    

              2       5        2.04       700     1000      520     2100     7000   
                                         GEOM     BASIS   MCVARS     RHF     PAPT   

 PROGRAMS   *        TOTAL      PAPT    HF-SCF       INT
 CPU TIMES  *        90.63     23.64     27.15     39.68
 REAL TIME  *       103.66 SEC
 DISK USED  *         4.41 GB
 **********************************************************************************************************************************


 PROGRAM * MP4 (Closed-shell)     Authors: C. Hampel, H.-J. Werner, 1991, M. Deegan, P.J. Knowles, 1992


 Convergence thresholds:  THRVAR = 1.00D-08  THRDEN = 1.00D-06

 MP4(T)     terms to be evaluated (factor= 0.000)


 Number of core orbitals:           5 (   3   2 )
 Number of closed-shell orbitals:  14 (   8   6 )
 Number of external orbitals:     243 ( 131 112 )

 Molecular orbitals read from record     7000.2  Type=PAPT/CANONICAL (state 1.1)

 Number of N-1 electron functions:              14
 Number of N-2 electron functions:             105
 Number of singly external CSFs:              1720
 Number of doubly external CSFs:           2895463
 Total number of CSFs:                     2897184

 Length of J-op  integral file:               0.00 MB
 Length of K-op  integral file:               2.44 MB

 Memory could be reduced to 122.32 Mwords without degradation in triples

 Integral transformation finished. Total CPU:  19.12 sec, npass=  1  Memory used:  53.19 MW
 Orbital energies read from record       7000.2  Type=PAPT/CANONICAL (state 1.1)

 Reference energy:                   -193.93219299

                        CORR.ENERGY   TOTAL ENERGY   ENERGY CHANGE
 MP2:                   -0.90420952  -194.83640250    -0.90420952

 SCS-MP2 correlation energy:           -0.90097974   (PS=  1.200000  PT=  0.333333)
 SCS-MP2 total energy:               -194.83317273

 MP3(D):                -0.90432938  -194.83652237    -0.00011987
 MP4(DQ):               -0.88816243  -194.82035542     0.01616695
 MP4(SDQ):              -0.89440842  -194.82660141    -0.00624598

 Norm of t1 vector:      0.06582796      S-energy:    -0.00624598      T1 diagnostic:  0.00879663

 Largest off-diagonal element in interal  block of Fock matrix:  0.11D+00
 Largest off-diagonal element in external block of Fock matrix:  0.17D+00


 Total CPU time for triples:    360.47 sec


 RESULTS
 =======

  Reference energy                   -193.932192987927
  MP4(SDQ) singlet pair energy         -0.601684021108
  MP4(SDQ) triplet pair energy         -0.286478413395
  MP4(SDQ) correlation energy          -0.894408417598

  Triples contribution                 -0.053283368817
  Total correlation energy             -0.947691786416

  MP4(SDQ) total energy              -194.826601405525
 !MP4(SDTQ) total energy             -194.879884774342

 Timing summary (sec):

 STEP                 CPU(USER)    SYS     CPU(TOT)    WALL
 Transformation         21.39      1.35     22.74     23.49
 CCSD iterations       108.26      0.44    108.70     17.95
 Triples               360.47     11.15    371.62    374.33

 Program statistics:

 Available memory in ccsd:               805305573
 Min. memory needed in ccsd:               7275480
 Max. memory used in ccsd:                 9897905
 Max. memory used in cckext:               9941714 ( 1 integral passes)



 **********************************************************************************************************************************
 DATASETS  * FILE   NREC   LENGTH (MB)   RECORD NAMES
              1      22     1579.82       500      610      700      900      950      970     1000      129      960     1100   
                                          VAR    BASINP    GEOM    SYMINP    ZMAT    AOBASIS   BASIS     P2S    ABASIS      S 
                                         1400     1410     1200     1210     1080     1600     1650     1300     1700     1380   
                                           T        V       H0       H01     AOSYM     SMH    MOLCAS    ERIS     OPER     JKOP   
                                         7000     1380(1)
                                        PAPT AO   JKOP   

              2       5        2.04       700     1000      520     2100     7000   
                                         GEOM     BASIS   MCVARS     RHF     PAPT   

 PROGRAMS   *        TOTAL       MP4      PAPT    HF-SCF       INT
 CPU TIMES  *       489.88    399.25     23.64     27.15     39.68
 REAL TIME  *       519.56 SEC
 DISK USED  *         4.41 GB
 **********************************************************************************************************************************

 Dump information in style XML to xml output                                                                      

 Orbitals will not be exported.

 **********************************************************************************************************************************

 MP4/cc-pVTZ energy=   -194.879884774342

             MP4            PAPT          HF-SCF
   -194.87988477   -194.82760095   -193.93219299
 **********************************************************************************************************************************
 Molpro calculation terminated
