
 Working directory              : /home/jovyan/scratch/molpro.N0nCt0Uhze/
 Global scratch directory       : /home/jovyan/scratch/molpro.N0nCt0Uhze/
 Wavefunction directory         : /home/jovyan/wfu/
 Main file repository           : /home/jovyan/scratch/molpro.N0nCt0Uhze/

 id        : cardiff

 Nodes                nprocs
 jupyter-c-2efrancisan    1
 GA implementation: MPI file
 GA implementation (serial work in mppx): MPI file

 Using customized tuning parameters: mindgm=1; mindgv=20; mindgc=4; mindgr=1; noblas=0; minvec=7
 default implementation of scratch files=df  


 Variables initialized (1031), CPU time= 0.00 sec
 
 
 
 geometry={
           15
     C         -3.68308053      0.94452211     -0.01656012
     H         -3.68590013     -0.15545023      0.01932632
     H         -3.15545960      1.24410275     -0.93472391
     H         -4.72649383      1.27817511     -0.10830711
     C         -3.01404275      1.53769362      1.22534673
     H         -3.04848053      2.63830850      1.18144679
     H         -3.58173640      1.25027510      2.12610967
     C         -1.54958284      1.09017006      1.38850510
     H         -1.52589130     -0.01495244      1.41907116
     H         -0.96721377      1.39104970      0.50204330
     C         -0.89999612      1.63188771      2.62799409
     H         -1.38186039      1.36273802      3.57573515
     C          0.18641143      2.40913614      2.65699083
     H          0.60540367      2.77523978      3.59524962
     H          0.70012704      2.70592330      1.73893155
 }
 basis=cc-pVDZ
 angstrom
 
 
 hf; ccsd(t)
 
 
 
 {put,xml;noorbitals,nobasis}
 Commands initialized (841), CPU time= 0.01 sec, 704 directives.
 Default parameters read. Elapsed time= 0.08 sec

 Checking input...
 Passed
1


                                         ***  PROGRAM SYSTEM MOLPRO  ***
                                       Copyright, TTI GmbH Stuttgart, 2015
                                    Version 2023.1 linked Mon Jun  5 13:27:10 2023


 **********************************************************************************************************************************
 LABEL *                                                                                                                                                                 
  (16 PROC) 64 bit serial version                                                        DATE: 03-Aug-23          TIME: 18:20:08  
 **********************************************************************************************************************************

 SHA1:             9738a14712571edd23541b6d7c4f3a3d766f8287
 **********************************************************************************************************************************

 Memory per process:       805 MW
 Total memory per node:   1074 MW
 Total GA space:           268 MW

 GA preallocation disabled
 GA check enabled

 Geometry recognized as XYZ


 Variable memory set to 805.3 MW

 SETTING BASIS          =    CC-PVDZ


 Recomputing integrals since basis changed


 Using spherical harmonics

 Library entry C      S cc-pVDZ              selected for orbital group  1
 Library entry C      P cc-pVDZ              selected for orbital group  1
 Library entry C      D cc-pVDZ              selected for orbital group  1
 Library entry H      S cc-pVDZ              selected for orbital group  2
 Library entry H      P cc-pVDZ              selected for orbital group  2


 PROGRAM * SEWARD (Integral evaluation for generally contracted gaussian basis sets)     Author: Roland Lindh, 1990

 Geometry written to block  1 of record 700


 Point group  C1  



 ATOMIC COORDINATES

 NR  ATOM    CHARGE       X              Y              Z

   1  C       6.00   -6.960013497    1.784888107   -0.031294091
   2  H       1.00   -6.965341768   -0.293758361    0.036521452
   3  H       1.00   -5.962954441    2.351013468   -1.766372192
   4  H       1.00   -8.931778868    2.415400897   -0.204670775
   5  C       6.00   -5.695715325    2.905819805    2.315569727
   6  H       1.00   -5.760793298    4.985680497    2.232610864
   7  H       1.00   -6.768500847    2.362677519    4.017764987
   8  C       6.00   -2.928287175    2.060122843    2.623894362
   9  H       1.00   -2.883516653   -0.028256016    2.681655844
  10  H       1.00   -1.827769129    2.628702959    0.948724340
  11  C       6.00   -1.700746180    3.083820838    4.966189087
  12  H       1.00   -2.611337680    2.575201637    6.757160128
  13  C       6.00    0.352266549    4.552607502    5.020984984
  14  H       1.00    1.144047131    5.244443114    6.794037131
  15  H       1.00    1.323048358    5.113453951    3.286104379

 Bond lengths in Bohr (Angstrom)

 1-2  2.079759235  1-3  2.079692453  1-4  2.077369619  1-5  2.891834629  5-6  2.082531588
     ( 1.100561191)     ( 1.100525852)     ( 1.099296661)     ( 1.530292984)     ( 1.102028257)

  5- 7  2.084068382   5- 8  2.910141921   8- 9  2.089657160   8-10  2.083414966   8-11  2.835693753
       ( 1.102841494)       ( 1.539980785)       ( 1.105798948)       ( 1.102495721)       ( 1.500584511)

 11-12  2.072546173  11-13  2.524915468  13-14  2.061375007  13-15  2.065617771
       ( 1.096744203)       ( 1.336127725)       ( 1.090832677)       ( 1.093077851)

 Bond angles

  1-5-6  109.94584458   1-5-7  109.68056227   1-5-8  112.89816040   2-1-3  107.48780124

  2-1-4  107.67649762   2-1-5  111.22736239   3-1-4  107.62601359   3-1-5  111.22011373

  4- 1- 5  111.41090819   5- 8- 9  108.28405905   5- 8-10  109.74459489   5- 8-11  113.22013171

  6- 5- 7  106.06529287   6- 5- 8  108.91518359   7- 5- 8  109.10139092   8-11-12  115.78507688

  8-11-13  125.44430423   9- 8-10  106.47810176   9- 8-11  109.18849067  10- 8-11  109.69199066

 11-13-14  121.75017514  11-13-15  121.45659305  12-11-13  118.76692411  14-13-15  116.79294029

 NUCLEAR CHARGE:                   40
 NUMBER OF PRIMITIVE AOS:         205
 NUMBER OF SYMMETRY AOS:          200
 NUMBER OF CONTRACTIONS:          120   (  120A   )
 NUMBER OF INNER CORE ORBITALS:     0   (    0A   )
 NUMBER OF OUTER CORE ORBITALS:     5   (    5A   )
 NUMBER OF VALENCE ORBITALS:       30   (   30A   )


 NUCLEAR REPULSION ENERGY  169.24471204


 Eigenvalues of metric

         1 0.205E-02 0.255E-02 0.490E-02 0.733E-02 0.139E-01 0.162E-01 0.169E-01 0.212E-01


 Contracted 2-electron integrals neglected if value below      1.0D-11
 AO integral compression algorithm  1   Integral accuracy      1.0D-11

     108.265 MB (compressed) written to integral file ( 49.5%)


 NUMBER OF SORTED TWO-ELECTRON INTEGRALS:   26357430.     BUFFER LENGTH:  32768
 NUMBER OF SEGMENTS:   2  SEGMENT LENGTH:   15997996      RECORD LENGTH: 524288

 Memory used in sort:      16.56 MW

 SORT1 READ    27348243. AND WROTE    24385806. INTEGRALS IN     71 RECORDS. CPU TIME:     0.34 SEC, REAL TIME:     0.70 SEC
 SORT2 READ    24385806. AND WROTE    26357430. INTEGRALS IN    413 RECORDS. CPU TIME:     0.49 SEC, REAL TIME:     0.61 SEC

 FILE SIZES:   FILE 1:   139.0 MBYTE,  FILE 4:   297.9 MBYTE,   TOTAL:    436.9 MBYTE

 OPERATOR DM      FOR CENTER  0  COORDINATES:    0.000000    0.000000    0.000000


 **********************************************************************************************************************************
 DATASETS  * FILE   NREC   LENGTH (MB)   RECORD NAMES
              1      19      121.27       500      610      700      900      950      970     1000      129      960     1100   
                                          VAR    BASINP    GEOM    SYMINP    ZMAT    AOBASIS   BASIS     P2S    ABASIS      S 
                                         1400     1410     1200     1210     1080     1600     1650     1300     1700   
                                           T        V       H0       H01     AOSYM     SMH    MOLCAS    ERIS     OPER   

 PROGRAMS   *        TOTAL       INT
 CPU TIMES  *         4.52      4.38
 REAL TIME  *         6.22 SEC
 DISK USED  *       417.24 MB
 **********************************************************************************************************************************


 Program * Restricted Hartree-Fock

 Orbital guess generated from atomic densities. Full valence occupancy:   35

 Initial occupancy:  20

 NELEC=   40   SYM=1   MS2= 0   THRE=1.0D-08   THRD=3.2D-06   THRG=3.2D-06  HFMA2=F  DIIS_START=2   DIIS_MAX=10   DIIS_INCORE=F

 Level shifts:    0.00 (CLOSED)    0.00 (OPEN)    0.30 (GAP_MIN)

 ITER           ETOT              DE          GRAD        DDIFF     DIIS  NEXP   TIME(IT)  TIME(TOT)  DIAG
   1     -195.09341848    -195.09341848     0.00D+00     0.93D-01     0     0       0.27      0.54    start
   2     -195.14983095      -0.05641247     0.42D-02     0.89D-02     1     0       0.27      0.81    diag
   3     -195.15557938      -0.00574843     0.15D-02     0.32D-02     2     0       0.27      1.08    diag
   4     -195.15639506      -0.00081568     0.47D-03     0.11D-02     3     0       0.27      1.35    diag
   5     -195.15640946      -0.00001441     0.64D-04     0.18D-03     4     0       0.28      1.63    diag
   6     -195.15641111      -0.00000164     0.24D-04     0.49D-04     5     0       0.26      1.89    diag
   7     -195.15641120      -0.00000009     0.38D-05     0.12D-04     6     0       0.27      2.16    diag
   8     -195.15641121      -0.00000001     0.19D-05     0.40D-05     7     0       0.28      2.44    fixocc
   9     -195.15641122      -0.00000000     0.63D-06     0.21D-05     8     0       0.27      2.71    diag
  10     -195.15641122      -0.00000000     0.26D-06     0.56D-06     0     0       0.27      2.98    diag/orth

 Final occupancy:  20

 !RHF STATE 1.1 Energy               -195.156411218681
  RHF One-electron energy            -596.912876485161
  RHF Two-electron energy             232.511753226606
  RHF Kinetic energy                  194.773582498421
  RHF Nuclear energy                  169.244712039874
  RHF Virial quotient                  -1.001965506386

 !RHF STATE 1.1 Dipole moment          -0.12534890    -0.05676000    -0.04877636
 Dipole moment /Debye                  -0.31860513    -0.14426952    -0.12397715

 Orbital energies:

           1.1          2.1          3.1          4.1          5.1          6.1          7.1          8.1          9.1         10.1
    -11.235993   -11.230306   -11.228366   -11.225858   -11.222998    -1.084763    -1.019307    -0.920252    -0.809041    -0.751550

          11.1         12.1         13.1         14.1         15.1         16.1         17.1         18.1         19.1         20.1
     -0.644339    -0.611086    -0.586377    -0.562689    -0.534228    -0.506758    -0.479961    -0.468769    -0.467111    -0.354926

          21.1         22.1
      0.173332     0.187722


 HOMO     20.1    -0.354926 =      -9.6580eV
 LUMO     21.1     0.173332 =       4.7166eV
 LUMO-HOMO         0.528258 =      14.3746eV

 Orbitals saved in record  2100.2


 **********************************************************************************************************************************
 DATASETS  * FILE   NREC   LENGTH (MB)   RECORD NAMES
              1      19      121.27       500      610      700      900      950      970     1000      129      960     1100   
                                          VAR    BASINP    GEOM    SYMINP    ZMAT    AOBASIS   BASIS     P2S    ABASIS      S 
                                         1400     1410     1200     1210     1080     1600     1650     1300     1700   
                                           T        V       H0       H01     AOSYM     SMH    MOLCAS    ERIS     OPER   

              2       4        0.84       700     1000      520     2100   
                                         GEOM     BASIS   MCVARS     RHF  

 PROGRAMS   *        TOTAL    HF-SCF       INT
 CPU TIMES  *         7.50      2.98      4.38
 REAL TIME  *         9.45 SEC
 DISK USED  *       417.24 MB
 **********************************************************************************************************************************


 PROGRAM * CCSD (Closed-shell coupled cluster)     Authors: C. Hampel, H.-J. Werner, 1991, M. Deegan, P.J. Knowles, 1992


 Convergence thresholds:  THRVAR = 1.00D-08  THRDEN = 1.00D-06

 CCSD(T)     terms to be evaluated (factor= 1.000)


 Number of core orbitals:           5 (   5 )
 Number of closed-shell orbitals:  15 (  15 )
 Number of external orbitals:     100 ( 100 )

 Molecular orbitals read from record     2100.2  Type=RHF/CANONICAL  

 Number of N-1 electron functions:              15
 Number of N-2 electron functions:             120
 Number of singly external CSFs:              1500
 Number of doubly external CSFs:           1125750
 Total number of CSFs:                     1127251

 Length of J-op  integral file:               0.00 MB
 Length of K-op  integral file:               1.05 MB
 Length of 3-ext integral record:             0.00 MB

 Memory could be reduced to 20.47 Mwords without degradation in triples

 Integral transformation finished. Total CPU:   1.88 sec, npass=  1  Memory used:  17.10 MW

 Reference energy:                   -195.15641122

 MP2 singlet pair energy:              -0.46341270
 MP2 triplet pair energy:              -0.24185712
 MP2 correlation energy:               -0.70526982
 MP2 total energy:                   -195.86168104

 SCS-MP2 correlation energy:           -0.70658412   (PS=  1.200000  PT=  0.333333)
 SCS-MP2 total energy:               -195.86299533

 ITER.      SQ.NORM     CORR.ENERGY   TOTAL ENERGY   ENERGY CHANGE        DEN1      VAR(S)    VAR(P)  DIIS     TIME  TIME/IT
   1      1.28371398    -0.76733452  -195.92374574    -0.06206470    -0.04107898  0.21D-02  0.47D-02  1  1    15.59     6.18
   2      1.30910480    -0.77276432  -195.92917554    -0.00542980    -0.02293687  0.57D-04  0.47D-03  2  2    21.71     6.29
   3      1.31522347    -0.77306145  -195.92947267    -0.00029713    -0.00299852  0.15D-04  0.44D-04  3  3    27.84     6.31
   4      1.31752466    -0.77315386  -195.92956508    -0.00009240    -0.00074894  0.99D-06  0.43D-05  4  4    33.91     6.54
   5      1.31803024    -0.77315875  -195.92956997    -0.00000490    -0.00010905  0.84D-07  0.48D-06  5  5    39.96     6.49
   6      1.31812477    -0.77315362  -195.92956484     0.00000513    -0.00001402  0.12D-07  0.33D-07  6  6    46.15     6.48
   7      1.31813685    -0.77315410  -195.92956531    -0.00000047     0.00000220  0.21D-08  0.34D-08  6  2    52.42     6.49
   8      1.31814113    -0.77315391  -195.92956513     0.00000019    -0.00000088  0.33D-09  0.32D-09  6  1    58.74     6.50

 Norm of t1 vector:      0.06504908      S-energy:    -0.00000001      T1 diagnostic:  0.00839780
                                                                       D1 diagnostic:  0.02968251
                                                                       D2 diagnostic:  0.19331066 (internal)

 Doubles amplitudes (print threshold =  0.500E-01):

         I         J         SYM. A    SYM. B    A         B      T(IJ, AB)

        15        15         1         1         1         1     -0.10030939


 Total CPU time for triples:     81.11 sec


 RESULTS
 =======

  Reference energy                   -195.156411218681
  CCSD singlet pair energy             -0.549422991584
  CCSD triplet pair energy             -0.223730906524
  CCSD correlation energy              -0.773153909859

  Triples (T) contribution             -0.024779395543
  Total correlation energy             -0.797933305402

  CCSD total energy                  -195.929565128540
  CCSD[T] energy                     -195.954891042410
  CCSD-T energy                      -195.954093194730
 !CCSD(T) total energy               -195.954344524083

 Timing summary (sec):

 STEP                 CPU(USER)    SYS     CPU(TOT)    WALL
 Transformation          1.96      0.20      2.16      2.60
 CCSD iterations        56.90      1.36     58.26     52.10
 Triples                81.11      2.50     83.61     84.96

 Program statistics:

 Available memory in ccsd:               805305448
 Min. memory needed in ccsd:               2984299
 Max. memory used in ccsd:                 3969799
 Max. memory used in cckext:               3643426 ( 8 integral passes)



 **********************************************************************************************************************************
 DATASETS  * FILE   NREC   LENGTH (MB)   RECORD NAMES
              1      20      199.12       500      610      700      900      950      970     1000      129      960     1100   
                                          VAR    BASINP    GEOM    SYMINP    ZMAT    AOBASIS   BASIS     P2S    ABASIS      S 
                                         1400     1410     1200     1210     1080     1600     1650     1300     1700     1380   
                                           T        V       H0       H01     AOSYM     SMH    MOLCAS    ERIS     OPER     JKOP   

              2       4        0.84       700     1000      520     2100   
                                         GEOM     BASIS   MCVARS     RHF  

 PROGRAMS   *        TOTAL   CCSD(T)    HF-SCF       INT
 CPU TIMES  *       139.70    132.20      2.98      4.38
 REAL TIME  *       149.17 SEC
 DISK USED  *       417.24 MB
 **********************************************************************************************************************************

 Dump information in style XML to xml output                                                                      

 Orbitals will not be exported.

 **********************************************************************************************************************************

 CCSD(T)/cc-pVDZ energy=   -195.954344524083

         CCSD(T)          HF-SCF
   -195.95434452   -195.15641122
 **********************************************************************************************************************************
 Molpro calculation terminated
