
 Working directory              : /home/jovyan/scratch/molpro.uDkZENHfGG/
 Global scratch directory       : /home/jovyan/scratch/molpro.uDkZENHfGG/
 Wavefunction directory         : /home/jovyan/wfu/
 Main file repository           : /home/jovyan/scratch/molpro.uDkZENHfGG/

 id        : cardiff

 Nodes                nprocs
 jupyter-c-2efrancisan    1
 GA implementation: MPI file
 GA implementation (serial work in mppx): MPI file

 Using customized tuning parameters: mindgm=1; mindgv=20; mindgc=4; mindgr=1; noblas=0; minvec=7
 default implementation of scratch files=df  


 Variables initialized (1031), CPU time= 0.00 sec
 
 
 
 geometry={
 6
  C     0.1354501    0.3335445    0.0000000
  O     0.1744673   -1.0774079    0.0000000
  H     0.6439155    0.7202929    0.8794450
  H     0.6439155    0.7202929   -0.8794450
  H    -0.8812042    0.7207713    0.0000000
  H    -0.7165441   -1.4174937    0.0000000
 }
 basis=cc-pVTZ
 angstrom
 
 
 hf
 
 
 
 {put,xml;noorbitals,nobasis}
 Commands initialized (841), CPU time= 0.01 sec, 704 directives.
 Default parameters read. Elapsed time= 0.08 sec

 Checking input...
 Passed
1


                                         ***  PROGRAM SYSTEM MOLPRO  ***
                                       Copyright, TTI GmbH Stuttgart, 2015
                                    Version 2023.1 linked Mon Jun  5 13:27:10 2023


 **********************************************************************************************************************************
 LABEL *                                                                                                                                                                 
  (16 PROC) 64 bit serial version                                                        DATE: 03-Aug-23          TIME: 10:06:31  
 **********************************************************************************************************************************

 SHA1:             9738a14712571edd23541b6d7c4f3a3d766f8287
 **********************************************************************************************************************************

 Memory per process:       805 MW
 Total memory per node:   1074 MW
 Total GA space:           268 MW

 GA preallocation disabled
 GA check enabled

 Geometry recognized as XYZ


 Variable memory set to 805.3 MW

 SETTING BASIS          =    CC-PVTZ


 Recomputing integrals since basis changed


 Using spherical harmonics

 Library entry C      S cc-pVTZ              selected for orbital group  1
 Library entry C      P cc-pVTZ              selected for orbital group  1
 Library entry C      D cc-pVTZ              selected for orbital group  1
 Library entry C      F cc-pVTZ              selected for orbital group  1
 Library entry O      S cc-pVTZ              selected for orbital group  2
 Library entry O      P cc-pVTZ              selected for orbital group  2
 Library entry O      D cc-pVTZ              selected for orbital group  2
 Library entry O      F cc-pVTZ              selected for orbital group  2
 Library entry H      S cc-pVTZ              selected for orbital group  3
 Library entry H      P cc-pVTZ              selected for orbital group  3
 Library entry H      D cc-pVTZ              selected for orbital group  3


 PROGRAM * SEWARD (Integral evaluation for generally contracted gaussian basis sets)     Author: Roland Lindh, 1990

 Geometry written to block  1 of record 700


 Point group  Cs  



 ATOMIC COORDINATES

 NR  ATOM    CHARGE       X              Y              Z

   1  C       6.00    0.255963593    0.630307755    0.000000000
   2  O       8.00    0.329695415   -2.036005856    0.000000000
   3  H       1.00    1.216823942    1.361156311    1.661910192
   4  H       1.00    1.216823942    1.361156311   -1.661910192
   5  H       1.00   -1.665234598    1.362060355    0.000000000
   6  H       1.00   -1.354072105   -2.678674876    0.000000000

 Bond lengths in Bohr (Angstrom)

 1-2  2.667332873  1-3  2.054102653  1-4  2.054102653  1-5  2.055836656  2-6  1.802247633
     ( 1.411491770)     ( 1.086984313)     ( 1.086984313)     ( 1.087901908)     ( 0.953708376)

 Bond angles

  1-2-6  109.30710981   2-1-3  110.04346811   2-1-4  110.04346811   2-1-5  112.43501110

  3-1-4  108.01008361   3-1-5  108.08925879   4-1-5  108.08925879

 NUCLEAR CHARGE:                   18
 NUMBER OF PRIMITIVE AOS:         162
 NUMBER OF SYMMETRY AOS:          148
 NUMBER OF CONTRACTIONS:          116   (   74A'  +   42A"  )
 NUMBER OF INNER CORE ORBITALS:     0   (    0A'  +    0A"  )
 NUMBER OF OUTER CORE ORBITALS:     2   (    2A'  +    0A"  )
 NUMBER OF VALENCE ORBITALS:       12   (    9A'  +    3A"  )


 NUCLEAR REPULSION ENERGY   40.51787732

 Eigenvalues of metric

         1 0.132E-02 0.181E-02 0.228E-02 0.332E-02 0.450E-02 0.714E-02 0.963E-02 0.106E-01
         2 0.187E-02 0.105E-01 0.226E-01 0.305E-01 0.372E-01 0.453E-01 0.786E-01 0.926E-01


 Contracted 2-electron integrals neglected if value below      1.0D-11
 AO integral compression algorithm  1   Integral accuracy      1.0D-11

     59.507 MB (compressed) written to integral file ( 53.6%)


 NUMBER OF SORTED TWO-ELECTRON INTEGRALS:   11777331.     BUFFER LENGTH:  32768
 NUMBER OF SEGMENTS:   1  SEGMENT LENGTH:   11777331      RECORD LENGTH: 524288

 Memory used in sort:      12.33 MW

 SORT1 READ    13896112. AND WROTE    11643159. INTEGRALS IN     34 RECORDS. CPU TIME:     0.16 SEC, REAL TIME:     0.41 SEC
 SORT2 READ    11643159. AND WROTE    11777331. INTEGRALS IN    227 RECORDS. CPU TIME:     0.29 SEC, REAL TIME:     0.34 SEC

 FILE SIZES:   FILE 1:    90.0 MBYTE,  FILE 4:   142.7 MBYTE,   TOTAL:    232.6 MBYTE

 OPERATOR DM      FOR CENTER  0  COORDINATES:    0.000000    0.000000    0.000000


 **********************************************************************************************************************************
 DATASETS  * FILE   NREC   LENGTH (MB)   RECORD NAMES
              1      19       77.81       500      610      700      900      950      970     1000      129      960     1100   
                                          VAR    BASINP    GEOM    SYMINP    ZMAT    AOBASIS   BASIS     P2S    ABASIS      S 
                                         1400     1410     1200     1210     1080     1600     1650     1300     1700   
                                           T        V       H0       H01     AOSYM     SMH    MOLCAS    ERIS     OPER   

 PROGRAMS   *        TOTAL       INT
 CPU TIMES  *         2.36      2.23
 REAL TIME  *         3.79 SEC
 DISK USED  *       222.27 MB
 **********************************************************************************************************************************


 Program * Restricted Hartree-Fock

 Orbital guess generated from atomic densities. Full valence occupancy:   11   3

 Initial occupancy:   7   2

 NELEC=   18   SYM=1   MS2= 0   THRE=1.0D-08   THRD=3.2D-06   THRG=3.2D-06  HFMA2=F  DIIS_START=2   DIIS_MAX=10   DIIS_INCORE=F

 Level shifts:    0.00 (CLOSED)    0.00 (OPEN)    0.30 (GAP_MIN)

 ITER           ETOT              DE          GRAD        DDIFF     DIIS  NEXP   TIME(IT)  TIME(TOT)  DIAG
   1     -115.05221572    -115.05221572     0.00D+00     0.96D-01     0     0       0.09      0.18    start
   2     -115.08057118      -0.02835545     0.83D-02     0.11D-01     1     0       0.08      0.26    diag
   3     -115.08749024      -0.00691907     0.44D-02     0.35D-02     2     0       0.09      0.35    diag
   4     -115.08798207      -0.00049183     0.86D-03     0.92D-03     3     0       0.08      0.43    diag
   5     -115.08801041      -0.00002834     0.17D-03     0.23D-03     4     0       0.09      0.52    diag
   6     -115.08801156      -0.00000114     0.31D-04     0.57D-04     5     0       0.08      0.60    diag
   7     -115.08801160      -0.00000004     0.64D-05     0.10D-04     6     0       0.08      0.68    diag
   8     -115.08801160      -0.00000000     0.21D-05     0.31D-05     7     0       0.09      0.77    fixocc
   9     -115.08801161      -0.00000000     0.53D-06     0.78D-06     0     0       0.09      0.86    diag

 Final occupancy:   7   2

 !RHF STATE 1.1 Energy               -115.088011605194
  RHF One-electron energy            -237.311172109889
  RHF Two-electron energy              81.705283184775
  RHF Kinetic energy                  114.991976833627
  RHF Nuclear energy                   40.517877319920
  RHF Virial quotient                  -1.000835143235

 !RHF STATE 1.1 Dipole moment          -0.60824342     0.37758338     0.00000000
 Dipole moment /Debye                  -1.54600058     0.95972122     0.00000000

 Orbital energies:

           1.1          2.1          3.1          4.1          5.1          6.1          7.1          8.1          9.1
    -20.549693   -11.266783    -1.356646    -0.925499    -0.691856    -0.595860    -0.499980     0.137506     0.177363

           1.2          2.2          3.2          4.2
     -0.618028    -0.445930     0.227442     0.386671


 HOMO      2.2    -0.445930 =     -12.1344eV
 LUMO      8.1     0.137506 =       3.7417eV
 LUMO-HOMO         0.583436 =      15.8761eV

 Orbitals saved in record  2100.2


 **********************************************************************************************************************************
 DATASETS  * FILE   NREC   LENGTH (MB)   RECORD NAMES
              1      19       77.81       500      610      700      900      950      970     1000      129      960     1100   
                                          VAR    BASINP    GEOM    SYMINP    ZMAT    AOBASIS   BASIS     P2S    ABASIS      S 
                                         1400     1410     1200     1210     1080     1600     1650     1300     1700   
                                           T        V       H0       H01     AOSYM     SMH    MOLCAS    ERIS     OPER   

              2       4        0.58       700     1000      520     2100   
                                         GEOM     BASIS   MCVARS     RHF  

 PROGRAMS   *        TOTAL    HF-SCF       INT
 CPU TIMES  *         3.22      0.86      2.23
 REAL TIME  *         4.79 SEC
 DISK USED  *       222.27 MB
 **********************************************************************************************************************************

 Dump information in style XML to xml output                                                                      

 Orbitals will not be exported.

 **********************************************************************************************************************************

 HF/cc-pVTZ energy=   -115.088011605194

          HF-SCF
   -115.08801161
 **********************************************************************************************************************************
 Molpro calculation terminated
