
 Working directory              : /home/jovyan/scratch/molpro.TMkEwXpTy1/
 Global scratch directory       : /home/jovyan/scratch/molpro.TMkEwXpTy1/
 Wavefunction directory         : /home/jovyan/wfu/
 Main file repository           : /home/jovyan/scratch/molpro.TMkEwXpTy1/

 id        : cardiff

 Nodes                nprocs
 jupyter-c-2efrancisan    1
 GA implementation: MPI file
 GA implementation (serial work in mppx): MPI file

 Using customized tuning parameters: mindgm=1; mindgv=20; mindgc=4; mindgr=1; noblas=0; minvec=7
 default implementation of scratch files=df  


 Variables initialized (1031), CPU time= 0.01 sec
 
 
 
 geometry={
 6
  N     0.0000000   -0.7296734   -0.3498847
  N     0.0000000    0.7296734   -0.3498847
  H    -0.8019523    1.0488615    0.1774826
  H     0.8019523    1.0488615    0.1774826
  H    -0.8019523   -1.0488615    0.1774826
  H     0.8019523   -1.0488615    0.1774826
 }
 basis=cc-pVDZ
 angstrom
 
 
 hf; mp4
 
 
 
 {put,xml;noorbitals,nobasis}
 Commands initialized (841), CPU time= 0.01 sec, 704 directives.
 Default parameters read. Elapsed time= 0.08 sec

 Checking input...
 Passed
1


                                         ***  PROGRAM SYSTEM MOLPRO  ***
                                       Copyright, TTI GmbH Stuttgart, 2015
                                    Version 2023.1 linked Mon Jun  5 13:27:10 2023


 **********************************************************************************************************************************
 LABEL *                                                                                                                                                                 
  (16 PROC) 64 bit serial version                                                        DATE: 03-Aug-23          TIME: 14:00:21  
 **********************************************************************************************************************************

 SHA1:             9738a14712571edd23541b6d7c4f3a3d766f8287
 **********************************************************************************************************************************

 Memory per process:       805 MW
 Total memory per node:   1074 MW
 Total GA space:           268 MW

 GA preallocation disabled
 GA check enabled

 Geometry recognized as XYZ


 Variable memory set to 805.3 MW

 SETTING BASIS          =    CC-PVDZ


 Recomputing integrals since basis changed


 Using spherical harmonics

 Library entry N      S cc-pVDZ              selected for orbital group  1
 Library entry N      P cc-pVDZ              selected for orbital group  1
 Library entry N      D cc-pVDZ              selected for orbital group  1
 Library entry H      S cc-pVDZ              selected for orbital group  2
 Library entry H      P cc-pVDZ              selected for orbital group  2


 PROGRAM * SEWARD (Integral evaluation for generally contracted gaussian basis sets)     Author: Roland Lindh, 1990

 Geometry written to block  1 of record 700


 Point group  C2v 



 ATOMIC COORDINATES

 NR  ATOM    CHARGE       X              Y              Z

   1  N       7.00    0.000000000   -1.378882886   -0.661186258
   2  N       7.00    0.000000000    1.378882886   -0.661186258
   3  H       1.00   -1.515470212    1.982060978    0.335393506
   4  H       1.00    1.515470212    1.982060978    0.335393506
   5  H       1.00   -1.515470212   -1.982060978    0.335393506
   6  H       1.00    1.515470212   -1.982060978    0.335393506

 Bond lengths in Bohr (Angstrom)

 1-2  2.757765773  1-5  1.911451019  1-6  1.911451019  2-3  1.911451019  2-4  1.911451019
     ( 1.459346800)     ( 1.011496319)     ( 1.011496319)     ( 1.011496319)     ( 1.011496319)

 Bond angles

  1-2-3  108.39464298   1-2-4  108.39464298   2-1-5  108.39464298   2-1-6  108.39464298

  3-2-4  104.90296938   5-1-6  104.90296938

 NUCLEAR CHARGE:                   18
 NUMBER OF PRIMITIVE AOS:          82
 NUMBER OF SYMMETRY AOS:           80
 NUMBER OF CONTRACTIONS:           48   (   15A1  +    9B1  +   15B2  +    9A2  )
 NUMBER OF INNER CORE ORBITALS:     0   (    0A1  +    0B1  +    0B2  +    0A2  )
 NUMBER OF OUTER CORE ORBITALS:     2   (    1A1  +    0B1  +    1B2  +    0A2  )
 NUMBER OF VALENCE ORBITALS:       12   (    4A1  +    2B1  +    4B2  +    2A2  )


 NUCLEAR REPULSION ENERGY   41.31325580

 Eigenvalues of metric

         1 0.209E-01 0.439E-01 0.127E+00 0.164E+00 0.196E+00 0.426E+00 0.492E+00 0.987E+00
         2 0.414E-01 0.101E+00 0.162E+00 0.583E+00 0.715E+00 0.112E+01 0.127E+01 0.157E+01
         3 0.685E-02 0.370E-01 0.529E-01 0.121E+00 0.148E+00 0.266E+00 0.392E+00 0.436E+00
         4 0.325E-01 0.530E-01 0.122E+00 0.438E+00 0.618E+00 0.102E+01 0.109E+01 0.128E+01


 Contracted 2-electron integrals neglected if value below      1.0D-11
 AO integral compression algorithm  1   Integral accuracy      1.0D-11

     1.573 MB (compressed) written to integral file ( 60.7%)


 NUMBER OF SORTED TWO-ELECTRON INTEGRALS:     185340.     BUFFER LENGTH:  32768
 NUMBER OF SEGMENTS:   1  SEGMENT LENGTH:     185340      RECORD LENGTH: 524288

 Memory used in sort:       0.74 MW

 SORT1 READ      312920. AND WROTE      171592. INTEGRALS IN      1 RECORDS. CPU TIME:     0.01 SEC, REAL TIME:     0.02 SEC
 SORT2 READ      171592. AND WROTE      185340. INTEGRALS IN      6 RECORDS. CPU TIME:     0.02 SEC, REAL TIME:     0.03 SEC

 FILE SIZES:   FILE 1:    31.7 MBYTE,  FILE 4:     4.3 MBYTE,   TOTAL:     36.0 MBYTE

 OPERATOR DM      FOR CENTER  0  COORDINATES:    0.000000    0.000000    0.000000


 **********************************************************************************************************************************
 DATASETS  * FILE   NREC   LENGTH (MB)   RECORD NAMES
              1      19       29.58       500      610      700      900      950      970     1000      129      960     1100   
                                          VAR    BASINP    GEOM    SYMINP    ZMAT    AOBASIS   BASIS     P2S    ABASIS      S 
                                         1400     1410     1200     1210     1080     1600     1650     1300     1700   
                                           T        V       H0       H01     AOSYM     SMH    MOLCAS    ERIS     OPER   

 PROGRAMS   *        TOTAL       INT
 CPU TIMES  *         0.59      0.46
 REAL TIME  *         1.54 SEC
 DISK USED  *        34.70 MB
 **********************************************************************************************************************************


 Program * Restricted Hartree-Fock

 Orbital guess generated from atomic densities. Full valence occupancy:    5   2   5   2

 Initial occupancy:   4   1   3   1

 NELEC=   18   SYM=1   MS2= 0   THRE=1.0D-08   THRD=3.2D-06   THRG=3.2D-06  HFMA2=F  DIIS_START=2   DIIS_MAX=10   DIIS_INCORE=F

 Level shifts:    0.00 (CLOSED)    0.00 (OPEN)    0.30 (GAP_MIN)

 ITER           ETOT              DE          GRAD        DDIFF     DIIS  NEXP   TIME(IT)  TIME(TOT)  DIAG
   1     -111.14086363    -111.14086363     0.00D+00     0.30D+00     0     0       0.00      0.00    start
   2     -111.16931868      -0.02845505     0.17D-01     0.35D-01     1     0       0.00      0.00    diag
   3     -111.17150080      -0.00218212     0.51D-02     0.84D-02     2     0       0.00      0.00    diag
   4     -111.17176796      -0.00026716     0.15D-02     0.31D-02     3     0       0.01      0.01    diag
   5     -111.17179019      -0.00002223     0.40D-03     0.80D-03     4     0       0.00      0.01    diag
   6     -111.17179184      -0.00000165     0.73D-04     0.20D-03     5     0       0.00      0.01    diag
   7     -111.17179201      -0.00000017     0.20D-04     0.79D-04     6     0       0.00      0.01    diag
   8     -111.17179202      -0.00000001     0.41D-05     0.17D-04     7     0       0.00      0.01    fixocc
   9     -111.17179202      -0.00000000     0.78D-06     0.28D-05     8     0       0.00      0.01    diag
  10     -111.17179202      -0.00000000     0.25D-06     0.46D-06     0     0       0.01      0.02    diag/orth

 Final occupancy:   4   1   3   1

 !RHF STATE 1.1 Energy               -111.171792016747
  RHF One-electron energy            -232.727345862992
  RHF Two-electron energy              80.242298044579
  RHF Kinetic energy                  111.066989862399
  RHF Nuclear energy                   41.313255801666
  RHF Virial quotient                  -1.000943594082

 !RHF STATE 1.1 Dipole moment           0.00000000     0.00000000     1.24983251
 Dipole moment /Debye                   0.00000000     0.00000000     3.17675739

 Orbital energies:

           1.1          2.1          3.1          4.1          5.1          6.1
    -15.566674    -1.246389    -0.628399    -0.488693     0.174192     0.812509

           1.2          2.2          3.2
     -0.697912     0.223652     0.687865

           1.3          2.3          3.3          4.3          5.3
    -15.566279    -1.008972    -0.352893     0.220624     0.435401

           1.4          2.4          3.4
     -0.565164     0.310674     0.860151


 HOMO      3.3    -0.352893 =      -9.6027eV
 LUMO      5.1     0.174192 =       4.7400eV
 LUMO-HOMO         0.527085 =      14.3427eV

 Orbitals saved in record  2100.2


 **********************************************************************************************************************************
 DATASETS  * FILE   NREC   LENGTH (MB)   RECORD NAMES
              1      19       29.58       500      610      700      900      950      970     1000      129      960     1100   
                                          VAR    BASINP    GEOM    SYMINP    ZMAT    AOBASIS   BASIS     P2S    ABASIS      S 
                                         1400     1410     1200     1210     1080     1600     1650     1300     1700   
                                           T        V       H0       H01     AOSYM     SMH    MOLCAS    ERIS     OPER   

              2       4        0.47       700     1000      520     2100   
                                         GEOM     BASIS   MCVARS     RHF  

 PROGRAMS   *        TOTAL    HF-SCF       INT
 CPU TIMES  *         0.62      0.03      0.46
 REAL TIME  *         1.66 SEC
 DISK USED  *        34.70 MB
 **********************************************************************************************************************************


 PROGRAM * MP4 (Closed-shell)     Authors: C. Hampel, H.-J. Werner, 1991, M. Deegan, P.J. Knowles, 1992


 Convergence thresholds:  THRVAR = 1.00D-08  THRDEN = 1.00D-06

 MP4(T)     terms to be evaluated (factor= 0.000)


 Number of core orbitals:           2 (   1   0   1   0 )
 Number of closed-shell orbitals:   7 (   3   1   2   1 )
 Number of external orbitals:      39 (  11   8  12   8 )

 Molecular orbitals read from record     2100.2  Type=RHF/CANONICAL  

 Number of N-1 electron functions:               7
 Number of N-2 electron functions:              28
 Number of singly external CSFs:                73
 Number of doubly external CSFs:              9508
 Total number of CSFs:                        9582

 Length of J-op  integral file:               0.00 MB
 Length of K-op  integral file:               0.10 MB

 Memory could be reduced to 0.22 Mwords without degradation in triples

 Integral transformation finished. Total CPU:   0.01 sec, npass=  1  Memory used:   0.11 MW

 Reference energy:                   -111.17179202

                        CORR.ENERGY   TOTAL ENERGY   ENERGY CHANGE
 MP2:                   -0.35057163  -111.52236365    -0.35057163

 SCS-MP2 correlation energy:           -0.34793596   (PS=  1.200000  PT=  0.333333)
 SCS-MP2 total energy:               -111.51972797

 MP3(D):                -0.37141686  -111.54320888    -0.02084523
 MP4(DQ):               -0.37367492  -111.54546694    -0.00225806
 MP4(SDQ):              -0.37522602  -111.54701804    -0.00155110

 Norm of t1 vector:      0.02695911      S-energy:    -0.00155110      T1 diagnostic:  0.00509479


 Total CPU time for triples:      0.07 sec


 RESULTS
 =======

  Reference energy                   -111.171792016747
  MP4(SDQ) singlet pair energy         -0.254555362590
  MP4(SDQ) triplet pair energy         -0.119119559198
  MP4(SDQ) correlation energy          -0.375226024339

  Triples contribution                 -0.008527497396
  Total correlation energy             -0.383753521736

  MP4(SDQ) total energy              -111.547018041087
 !MP4(SDTQ) total energy             -111.555545538483

 Timing summary (sec):

 STEP                 CPU(USER)    SYS     CPU(TOT)    WALL
 Transformation          0.01      0.00      0.01      0.16
 CCSD iterations         0.96      0.00      0.96      0.05
 Triples                 0.07      0.01      0.08      0.07

 Program statistics:

 Available memory in ccsd:               805306168
 Min. memory needed in ccsd:                 35241
 Max. memory used in ccsd:                   41921
 Max. memory used in cckext:                 73130 ( 1 integral passes)



 **********************************************************************************************************************************
 DATASETS  * FILE   NREC   LENGTH (MB)   RECORD NAMES
              1      20       30.19       500      610      700      900      950      970     1000      129      960     1100   
                                          VAR    BASINP    GEOM    SYMINP    ZMAT    AOBASIS   BASIS     P2S    ABASIS      S 
                                         1400     1410     1200     1210     1080     1600     1650     1300     1700     1380   
                                           T        V       H0       H01     AOSYM     SMH    MOLCAS    ERIS     OPER     JKOP   

              2       4        0.47       700     1000      520     2100   
                                         GEOM     BASIS   MCVARS     RHF  

 PROGRAMS   *        TOTAL       MP4    HF-SCF       INT
 CPU TIMES  *         0.76      0.14      0.03      0.46
 REAL TIME  *         1.98 SEC
 DISK USED  *        34.70 MB
 **********************************************************************************************************************************

 Dump information in style XML to xml output                                                                      

 Orbitals will not be exported.

 **********************************************************************************************************************************

 MP4/cc-pVDZ energy=   -111.555545538483

             MP4          HF-SCF
   -111.55554554   -111.17179202
 **********************************************************************************************************************************
 Molpro calculation terminated
