
 Working directory              : /home/jovyan/scratch/molpro.1WJyMwo1wc/
 Global scratch directory       : /home/jovyan/scratch/molpro.1WJyMwo1wc/
 Wavefunction directory         : /home/jovyan/wfu/
 Main file repository           : /home/jovyan/scratch/molpro.1WJyMwo1wc/

 id        : cardiff

 Nodes                nprocs
 jupyter-c-2efrancisan    1
 GA implementation: MPI file
 GA implementation (serial work in mppx): MPI file

 Using customized tuning parameters: mindgm=1; mindgv=20; mindgc=4; mindgr=1; noblas=0; minvec=7
 default implementation of scratch files=df  


 Variables initialized (1031), CPU time= 0.00 sec
 
 
 
 geometry={
            3
     C          0.00000000      0.00000000     -0.02902643
     N          0.00000000      0.00000000      1.12397830
     H          0.00000000      0.00000000     -1.09495187
 }
 basis=cc-pVTZ
 angstrom
 
 
 hf; papt;mp3
 
 
 
 {put,xml;noorbitals,nobasis}
 Commands initialized (841), CPU time= 0.01 sec, 704 directives.
 Default parameters read. Elapsed time= 0.09 sec

 Checking input...
 Passed
1


                                         ***  PROGRAM SYSTEM MOLPRO  ***
                                       Copyright, TTI GmbH Stuttgart, 2015
                                    Version 2023.1 linked Mon Jun  5 13:27:10 2023


 **********************************************************************************************************************************
 LABEL *                                                                                                                                                                 
  (16 PROC) 64 bit serial version                                                        DATE: 02-Aug-23          TIME: 15:46:01  
 **********************************************************************************************************************************

 SHA1:             9738a14712571edd23541b6d7c4f3a3d766f8287
 **********************************************************************************************************************************

 Memory per process:       805 MW
 Total memory per node:   1074 MW
 Total GA space:           268 MW

 GA preallocation disabled
 GA check enabled

 Geometry recognized as XYZ


 Variable memory set to 805.3 MW

 SETTING BASIS          =    CC-PVTZ


 Recomputing integrals since basis changed


 Using spherical harmonics

 Library entry C      S cc-pVTZ              selected for orbital group  1
 Library entry C      P cc-pVTZ              selected for orbital group  1
 Library entry C      D cc-pVTZ              selected for orbital group  1
 Library entry C      F cc-pVTZ              selected for orbital group  1
 Library entry N      S cc-pVTZ              selected for orbital group  2
 Library entry N      P cc-pVTZ              selected for orbital group  2
 Library entry N      D cc-pVTZ              selected for orbital group  2
 Library entry N      F cc-pVTZ              selected for orbital group  2
 Library entry H      S cc-pVTZ              selected for orbital group  3
 Library entry H      P cc-pVTZ              selected for orbital group  3
 Library entry H      D cc-pVTZ              selected for orbital group  3


 PROGRAM * SEWARD (Integral evaluation for generally contracted gaussian basis sets)     Author: Roland Lindh, 1990

 Geometry written to block  1 of record 700


 Point group  C2v 



 ATOMIC COORDINATES

 NR  ATOM    CHARGE       X              Y              Z

   1  C       6.00    0.000000000    0.000000000   -0.054852003
   2  N       7.00    0.000000000    0.000000000    2.124011157
   3  H       1.00    0.000000000    0.000000000   -2.069159154

 Bond lengths in Bohr (Angstrom)

 1-2  2.178863160  1-3  2.014307151
     ( 1.153004730)     ( 1.065925440)

 Bond angles

  2-1-3  180.00000000

 NUCLEAR CHARGE:                   14
 NUMBER OF PRIMITIVE AOS:         111
 NUMBER OF SYMMETRY AOS:          100
 NUMBER OF CONTRACTIONS:           74   (   33A1  +   17B1  +   17B2  +    7A2  )
 NUMBER OF INNER CORE ORBITALS:     0   (    0A1  +    0B1  +    0B2  +    0A2  )
 NUMBER OF OUTER CORE ORBITALS:     2   (    2A1  +    0B1  +    0B2  +    0A2  )
 NUMBER OF VALENCE ORBITALS:        9   (    5A1  +    2B1  +    2B2  +    0A2  )


 NUCLEAR REPULSION ENERGY   23.92418025

 EXTRA SYMMETRY OF AOS IN SYMMETRY 1:   1 1 1 1 1 1 1 1 2 1   2 1 2 1 1 1 1 1 1 1   1 2 1 2 1 2 1 1 1 1   1 1 2
 EXTRA SYMMETRY OF AOS IN SYMMETRY 2:   1 1 1 1 1 1 2 1 1 1   1 1 1 2 1 1 1
 EXTRA SYMMETRY OF AOS IN SYMMETRY 3:   1 1 1 1 1 1 2 1 1 1   1 1 1 2 1 1 1

 Eigenvalues of metric

         1 0.108E-02 0.145E-02 0.245E-02 0.632E-02 0.109E-01 0.191E-01 0.292E-01 0.472E-01
         2 0.153E-01 0.363E-01 0.608E-01 0.887E-01 0.132E+00 0.284E+00 0.376E+00 0.431E+00
         3 0.153E-01 0.363E-01 0.608E-01 0.887E-01 0.132E+00 0.284E+00 0.376E+00 0.431E+00
         4 0.292E+00 0.453E+00 0.574E+00 0.845E+00 0.125E+01 0.156E+01 0.203E+01


 Contracted 2-electron integrals neglected if value below      1.0D-11
 AO integral compression algorithm  1   Integral accuracy      1.0D-11

     5.243 MB (compressed) written to integral file ( 52.8%)


 NUMBER OF SORTED TWO-ELECTRON INTEGRALS:    1039939.     BUFFER LENGTH:  32768
 NUMBER OF SEGMENTS:   1  SEGMENT LENGTH:    1039939      RECORD LENGTH: 524288

 Memory used in sort:       1.60 MW

 SORT1 READ     1258092. AND WROTE      847426. INTEGRALS IN      3 RECORDS. CPU TIME:     0.03 SEC, REAL TIME:     0.05 SEC
 SORT2 READ      847426. AND WROTE     1039939. INTEGRALS IN     20 RECORDS. CPU TIME:     0.05 SEC, REAL TIME:     0.06 SEC

 FILE SIZES:   FILE 1:    35.4 MBYTE,  FILE 4:    12.6 MBYTE,   TOTAL:     48.0 MBYTE

 OPERATOR DM      FOR CENTER  0  COORDINATES:    0.000000    0.000000    0.000000


 **********************************************************************************************************************************
 DATASETS  * FILE   NREC   LENGTH (MB)   RECORD NAMES
              1      19       32.72       500      610      700      900      950      970     1000      129      960     1100   
                                          VAR    BASINP    GEOM    SYMINP    ZMAT    AOBASIS   BASIS     P2S    ABASIS      S 
                                         1400     1410     1200     1210     1080     1600     1650     1300     1700   
                                           T        V       H0       H01     AOSYM     SMH    MOLCAS    ERIS     OPER   

 PROGRAMS   *        TOTAL       INT
 CPU TIMES  *         0.90      0.76
 REAL TIME  *         2.22 SEC
 DISK USED  *        46.19 MB
 **********************************************************************************************************************************


 Program * Restricted Hartree-Fock

 Orbital guess generated from atomic densities. Full valence occupancy:    7   2   2   0

 Initial occupancy:   5   1   1   0

 NELEC=   14   SYM=1   MS2= 0   THRE=1.0D-08   THRD=3.2D-06   THRG=3.2D-06  HFMA2=F  DIIS_START=2   DIIS_MAX=10   DIIS_INCORE=F

 Level shifts:    0.00 (CLOSED)    0.00 (OPEN)    0.30 (GAP_MIN)

 ITER           ETOT              DE          GRAD        DDIFF     DIIS  NEXP   TIME(IT)  TIME(TOT)  DIAG
   1      -92.88378539     -92.88378539     0.00D+00     0.16D+00     0     0       0.00      0.01    start
   2      -92.89280828      -0.00902288     0.12D-01     0.19D-01     1     0       0.01      0.02    diag
   3      -92.90784561      -0.01503733     0.10D-01     0.95D-02     2     0       0.00      0.02    diag
   4      -92.90806386      -0.00021825     0.83D-03     0.15D-02     3     0       0.01      0.03    diag
   5      -92.90807601      -0.00001215     0.18D-03     0.40D-03     4     0       0.00      0.03    diag
   6      -92.90807674      -0.00000073     0.50D-04     0.91D-04     5     0       0.01      0.04    diag
   7      -92.90807681      -0.00000007     0.18D-04     0.31D-04     6     0       0.01      0.05    diag
   8      -92.90807681      -0.00000000     0.35D-05     0.58D-05     7     0       0.00      0.05    fixocc
   9      -92.90807681      -0.00000000     0.38D-06     0.81D-06     8     0       0.01      0.06    diag
  10      -92.90807681      -0.00000000     0.38D-07     0.58D-07     0     0       0.01      0.07    diag/orth

 Final occupancy:   5   1   1   0

 !RHF STATE 1.1 Energy                -92.908076814508
  RHF One-electron energy            -172.648945520193
  RHF Two-electron energy              55.816688456816
  RHF Kinetic energy                   92.704736486647
  RHF Nuclear energy                   23.924180248868
  RHF Virial quotient                  -1.002193418973

 !RHF STATE 1.1 Dipole moment           0.00000000     0.00000000    -1.28089358
 Dipole moment /Debye                   0.00000000     0.00000000    -3.25570673

 Orbital energies:

           1.1          2.1          3.1          4.1          5.1          6.1          7.1
    -15.597940   -11.290482    -1.235503    -0.811666    -0.580961     0.141833     0.240716

           1.2          2.2          3.2
     -0.495617     0.166934     0.446477

           1.3          2.3          3.3
     -0.495617     0.166934     0.446477

           1.4          2.4
      0.810416     1.420156


 HOMO      1.3    -0.495617 =     -13.4864eV
 LUMO      6.1     0.141833 =       3.8595eV
 LUMO-HOMO         0.637449 =      17.3459eV

 Orbitals saved in record  2100.2


 **********************************************************************************************************************************
 DATASETS  * FILE   NREC   LENGTH (MB)   RECORD NAMES
              1      19       32.72       500      610      700      900      950      970     1000      129      960     1100   
                                          VAR    BASINP    GEOM    SYMINP    ZMAT    AOBASIS   BASIS     P2S    ABASIS      S 
                                         1400     1410     1200     1210     1080     1600     1650     1300     1700   
                                           T        V       H0       H01     AOSYM     SMH    MOLCAS    ERIS     OPER   

              2       4        0.44       700     1000      520     2100   
                                         GEOM     BASIS   MCVARS     RHF  

 PROGRAMS   *        TOTAL    HF-SCF       INT
 CPU TIMES  *         0.97      0.07      0.76
 REAL TIME  *         2.33 SEC
 DISK USED  *        46.19 MB
 **********************************************************************************************************************************


 PROGRAM * PAPT (Closed-shell)     Authors: C. Hampel, H.-J. Werner, 1991, P.J. Knowles, 2021


 Convergence thresholds:  THRVAR = 1.00D-08  THRDEN = 1.00D-06

 Number of core orbitals:           2 (   2   0   0   0 )
 Number of closed-shell orbitals:   5 (   3   1   1   0 )
 Number of external orbitals:      67 (  28  16  16   7 )

 Molecular orbitals read from record     2100.2  Type=RHF/CANONICAL  

 Number of N-1 electron functions:               5
 Number of N-2 electron functions:              15
 Number of singly external CSFs:               116
 Number of doubly external CSFs:             15189
 Total number of CSFs:                       15306

 Length of J-op  integral file:               0.00 MB
 Length of K-op  integral file:               0.18 MB

 Integral transformation finished. Total CPU:   0.01 sec, npass=  1  Memory used:   0.09 MW

 Reference energy:                    -92.90807681

                        CORR.ENERGY   TOTAL ENERGY   ENERGY CHANGE
 MP2:                   -0.34512909   -93.25320591    -0.34512909

 SCS-MP2 correlation energy:           -0.34068279   (PS=  1.200000  PT=  0.333333)
 SCS-MP2 total energy:                -93.24875961
 Iteration:   1     0.2572D+00
 Iteration:   2     0.3877D+00
 Iteration:   3     0.1036D+00
 Iteration:   4     0.5550D-01
 Iteration:   5     0.5776D-01
 Iteration:   6     0.1643D-01
 Iteration:   7     0.3002D-01
 Iteration:   8     0.5520D-02
 Iteration:   9     0.4390D-02
 Iteration:  10     0.3550D-02
 Iteration:  11     0.3670D-03
 Iteration:  12     0.8212D-04
 PAPT operator written to  7000.1
 PAPT orbitals and eigenvalues written to  7000.2

 MP3(D):                -0.34439722   -93.25247404     0.00073187



 RESULTS
 =======

  Reference energy                    -92.908076814508
  MP3 singlet pair energy              -0.233251017629
  MP3 triplet pair energy              -0.111146204226
  MP3 correlation energy               -0.344397221855

 !MP3 total energy                    -93.252474036363

 Timing summary (sec):

 STEP                 CPU(USER)    SYS     CPU(TOT)    WALL
 Transformation          0.01      0.01      0.02      0.13
 CCSD iterations         1.38      0.01      1.39      0.18

 Program statistics:

 Available memory in ccsd:               805306263
 Min. memory needed in ccsd:                 65983
 Max. memory used in ccsd:                   76615
 Max. memory used in cckext:                107380 ( 1 integral passes)



 **********************************************************************************************************************************
 DATASETS  * FILE   NREC   LENGTH (MB)   RECORD NAMES
              1      21       33.02       500      610      700      900      950      970     1000      129      960     1100   
                                          VAR    BASINP    GEOM    SYMINP    ZMAT    AOBASIS   BASIS     P2S    ABASIS      S 
                                         1400     1410     1200     1210     1080     1600     1650     1300     1700     1380   
                                           T        V       H0       H01     AOSYM     SMH    MOLCAS    ERIS     OPER     JKOP   
                                         7000   
                                        PAPT AO    

              2       5        0.58       700     1000      520     2100     7000   
                                         GEOM     BASIS   MCVARS     RHF     PAPT   

 PROGRAMS   *        TOTAL      PAPT    HF-SCF       INT
 CPU TIMES  *         1.10      0.13      0.07      0.76
 REAL TIME  *         2.69 SEC
 DISK USED  *        46.19 MB
 **********************************************************************************************************************************


 PROGRAM * MP3 (Closed-shell)     Authors: C. Hampel, H.-J. Werner, 1991, M. Deegan, P.J. Knowles, 1992


 Convergence thresholds:  THRVAR = 1.00D-08  THRDEN = 1.00D-06

 Number of core orbitals:           2 (   2   0   0   0 )
 Number of closed-shell orbitals:   5 (   3   1   1   0 )
 Number of external orbitals:      67 (  28  16  16   7 )

 Molecular orbitals read from record     7000.2  Type=PAPT/CANONICAL (state 1.1)

 Number of N-1 electron functions:               5
 Number of N-2 electron functions:              15
 Number of singly external CSFs:               116
 Number of doubly external CSFs:             15189
 Total number of CSFs:                       15306

 Length of J-op  integral file:               0.00 MB
 Length of K-op  integral file:               0.18 MB

 Integral transformation finished. Total CPU:   0.01 sec, npass=  1  Memory used:   0.09 MW
 Orbital energies read from record       7000.2  Type=PAPT/CANONICAL (state 1.1)

 Reference energy:                    -92.90807681

                        CORR.ENERGY   TOTAL ENERGY   ENERGY CHANGE
 MP2:                   -0.34908275   -93.25715957    -0.34908275

 SCS-MP2 correlation energy:           -0.34686967   (PS=  1.200000  PT=  0.333333)
 SCS-MP2 total energy:                -93.25494648

 MP3(D):                -0.34891852   -93.25699533     0.00016424



 RESULTS
 =======

  Reference energy                    -92.908076814508
  MP3 singlet pair energy              -0.235893562239
  MP3 triplet pair energy              -0.113024954489
  MP3 correlation energy               -0.348918516728

 !MP3 total energy                    -93.256995331236

 Timing summary (sec):

 STEP                 CPU(USER)    SYS     CPU(TOT)    WALL
 Transformation          0.03      0.01      0.04      0.10
 CCSD iterations         1.45      0.00      1.45      0.07

 Program statistics:

 Available memory in ccsd:               805306263
 Min. memory needed in ccsd:                 65983
 Max. memory used in ccsd:                   76615
 Max. memory used in cckext:                107380 ( 1 integral passes)



 **********************************************************************************************************************************
 DATASETS  * FILE   NREC   LENGTH (MB)   RECORD NAMES
              1      21       33.02       500      610      700      900      950      970     1000      129      960     1100   
                                          VAR    BASINP    GEOM    SYMINP    ZMAT    AOBASIS   BASIS     P2S    ABASIS      S 
                                         1400     1410     1200     1210     1080     1600     1650     1300     1700     1380   
                                           T        V       H0       H01     AOSYM     SMH    MOLCAS    ERIS     OPER     JKOP   
                                         7000   
                                        PAPT AO    

              2       5        0.58       700     1000      520     2100     7000   
                                         GEOM     BASIS   MCVARS     RHF     PAPT   

 PROGRAMS   *        TOTAL       MP3      PAPT    HF-SCF       INT
 CPU TIMES  *         1.19      0.09      0.13      0.07      0.76
 REAL TIME  *         2.93 SEC
 DISK USED  *        46.19 MB
 **********************************************************************************************************************************

 Dump information in style XML to xml output                                                                      

 Orbitals will not be exported.

 **********************************************************************************************************************************

 MP3/cc-pVTZ energy=    -93.256995331236

             MP3            PAPT          HF-SCF
    -93.25699533    -93.25247404    -92.90807681
 **********************************************************************************************************************************
 Molpro calculation terminated
