
 Working directory              : /home/jovyan/scratch/molpro.EjkXwXlNZ7/
 Global scratch directory       : /home/jovyan/scratch/molpro.EjkXwXlNZ7/
 Wavefunction directory         : /home/jovyan/wfu/
 Main file repository           : /home/jovyan/scratch/molpro.EjkXwXlNZ7/

 id        : cardiff

 Nodes                nprocs
 jupyter-c-2efrancisan    1
 GA implementation: MPI file
 GA implementation (serial work in mppx): MPI file

 Using customized tuning parameters: mindgm=1; mindgv=20; mindgc=4; mindgr=1; noblas=0; minvec=7
 default implementation of scratch files=df  


 Variables initialized (1031), CPU time= 0.01 sec
 
 
 
 geometry={
 9
  C 0.000000 0.471708 0.000000
  H -0.276412 1.522311 0.000000
  C -1.134329 -0.504429 0.000000
  H -0.776700 -1.534190 0.000000
  H -1.772470 -0.363824 0.876336
  H -1.772470 -0.363824 -0.876336
  C 1.287947 0.151466 0.000000
  H 2.060505 0.908567 0.000000
  H 1.615839 -0.881516 0.000000
 }
 basis=cc-pVTZ
 angstrom
 
 
 hf
 
 
 
 {put,xml;noorbitals,nobasis}
 Commands initialized (841), CPU time= 0.01 sec, 704 directives.
 Default parameters read. Elapsed time= 0.08 sec

 Checking input...
 Passed
1


                                         ***  PROGRAM SYSTEM MOLPRO  ***
                                       Copyright, TTI GmbH Stuttgart, 2015
                                    Version 2023.1 linked Mon Jun  5 13:27:10 2023


 **********************************************************************************************************************************
 LABEL *                                                                                                                                                                 
  (16 PROC) 64 bit serial version                                                        DATE: 02-Aug-23          TIME: 15:32:28  
 **********************************************************************************************************************************

 SHA1:             9738a14712571edd23541b6d7c4f3a3d766f8287
 **********************************************************************************************************************************

 Memory per process:       805 MW
 Total memory per node:   1074 MW
 Total GA space:           268 MW

 GA preallocation disabled
 GA check enabled

 Geometry recognized as XYZ


 Variable memory set to 805.3 MW

 SETTING BASIS          =    CC-PVTZ


 Recomputing integrals since basis changed


 Using spherical harmonics

 Library entry C      S cc-pVTZ              selected for orbital group  1
 Library entry C      P cc-pVTZ              selected for orbital group  1
 Library entry C      D cc-pVTZ              selected for orbital group  1
 Library entry C      F cc-pVTZ              selected for orbital group  1
 Library entry H      S cc-pVTZ              selected for orbital group  2
 Library entry H      P cc-pVTZ              selected for orbital group  2
 Library entry H      D cc-pVTZ              selected for orbital group  2


 PROGRAM * SEWARD (Integral evaluation for generally contracted gaussian basis sets)     Author: Roland Lindh, 1990

 Geometry written to block  1 of record 700


 Point group  Cs  



 ATOMIC COORDINATES

 NR  ATOM    CHARGE       X              Y              Z

   1  C       6.00    0.000000000    0.891398931    0.000000000
   2  H       1.00   -0.522342978    2.876750867    0.000000000
   3  C       6.00   -2.143571145   -0.953232659    0.000000000
   4  H       1.00   -1.467750281   -2.899198923    0.000000000
   5  H       1.00   -3.349482864   -0.687527718    1.656035033
   6  H       1.00   -3.349482864   -0.687527718   -1.656035033
   7  C       6.00    2.433867093    0.286229257    0.000000000
   8  H       1.00    3.893790128    1.716942796    0.000000000
   9  H       1.00    3.053493171   -1.665823814    0.000000000

 Bond lengths in Bohr (Angstrom)

 1-2  2.052916095  1-3  2.827996280  1-7  2.507975151  3-4  2.059980228  3-5  2.065738178
     ( 1.086356414)     ( 1.496511184)     ( 1.327163296)     ( 1.090094592)     ( 1.093141568)

 3-6  2.065738178  7-8  2.044093075  7-9  2.048035076
     ( 1.093141568)     ( 1.081687472)     ( 1.083773489)

 Bond angles

  1-3-4  111.56158910   1-3-5  111.01344925   1-3-6  111.01344925   1-7-8  121.61577775

  1-7-9  121.57379183   2-1-3  115.97297962   2-1-7  118.70354514   3-1-7  125.32347524

  4-3-5  108.24152514   4-3-6  108.24152514   5-3-6  106.57925455   8-7-9  116.81043042

 NUCLEAR CHARGE:                   24
 NUMBER OF PRIMITIVE AOS:         243
 NUMBER OF SYMMETRY AOS:          222
 NUMBER OF CONTRACTIONS:          174   (  114A'  +   60A"  )
 NUMBER OF INNER CORE ORBITALS:     0   (    0A'  +    0A"  )
 NUMBER OF OUTER CORE ORBITALS:     3   (    3A'  +    0A"  )
 NUMBER OF VALENCE ORBITALS:       18   (   14A'  +    4A"  )


 NUCLEAR REPULSION ENERGY   70.88807056


 Eigenvalues of metric

         1 0.536E-03 0.861E-03 0.113E-02 0.126E-02 0.134E-02 0.141E-02 0.162E-02 0.182E-02
         2 0.177E-02 0.992E-02 0.183E-01 0.200E-01 0.214E-01 0.334E-01 0.377E-01 0.494E-01


 Contracted 2-electron integrals neglected if value below      1.0D-11
 AO integral compression algorithm  1   Integral accuracy      1.0D-11

     250.610 MB (compressed) written to integral file ( 47.7%)


 NUMBER OF SORTED TWO-ELECTRON INTEGRALS:   59149605.     BUFFER LENGTH:  32768
 NUMBER OF SEGMENTS:   4  SEGMENT LENGTH:   15997996      RECORD LENGTH: 524288

 Memory used in sort:      16.56 MW

 SORT1 READ    65606991. AND WROTE    55620870. INTEGRALS IN    162 RECORDS. CPU TIME:     1.00 SEC, REAL TIME:     1.81 SEC
 SORT2 READ    55620870. AND WROTE    59149605. INTEGRALS IN    956 RECORDS. CPU TIME:     1.31 SEC, REAL TIME:     1.62 SEC

 FILE SIZES:   FILE 1:   281.6 MBYTE,  FILE 4:   679.5 MBYTE,   TOTAL:    961.1 MBYTE

 OPERATOR DM      FOR CENTER  0  COORDINATES:    0.000000    0.000000    0.000000


 **********************************************************************************************************************************
 DATASETS  * FILE   NREC   LENGTH (MB)   RECORD NAMES
              1      19      250.01       500      610      700      900      950      970     1000      129      960     1100   
                                          VAR    BASINP    GEOM    SYMINP    ZMAT    AOBASIS   BASIS     P2S    ABASIS      S 
                                         1400     1410     1200     1210     1080     1600     1650     1300     1700   
                                           T        V       H0       H01     AOSYM     SMH    MOLCAS    ERIS     OPER   

 PROGRAMS   *        TOTAL       INT
 CPU TIMES  *         9.94      9.81
 REAL TIME  *        17.85 SEC
 DISK USED  *       917.09 MB
 **********************************************************************************************************************************


 Program * Restricted Hartree-Fock

 Orbital guess generated from atomic densities. Full valence occupancy:   17   4

 Initial occupancy:  10   2

 NELEC=   24   SYM=1   MS2= 0   THRE=1.0D-08   THRD=3.2D-06   THRG=3.2D-06  HFMA2=F  DIIS_START=2   DIIS_MAX=10   DIIS_INCORE=F

 Level shifts:    0.00 (CLOSED)    0.00 (OPEN)    0.30 (GAP_MIN)

 ITER           ETOT              DE          GRAD        DDIFF     DIIS  NEXP   TIME(IT)  TIME(TOT)  DIAG
   1     -117.07536239    -117.07536239     0.00D+00     0.73D-01     0     0       0.44      0.86    start
   2     -117.11160545      -0.03624306     0.47D-02     0.69D-02     1     0       0.47      1.33    diag
   3     -117.11588064      -0.00427519     0.18D-02     0.19D-02     2     0       0.46      1.79    diag
   4     -117.11651596      -0.00063532     0.52D-03     0.78D-03     3     0       0.45      2.24    diag
   5     -117.11652856      -0.00001261     0.68D-04     0.15D-03     4     0       0.47      2.71    diag
   6     -117.11652930      -0.00000074     0.22D-04     0.34D-04     5     0       0.45      3.16    diag
   7     -117.11652939      -0.00000009     0.56D-05     0.11D-04     6     0       0.46      3.62    diag
   8     -117.11652941      -0.00000001     0.23D-05     0.36D-05     7     0       0.46      4.08    fixocc
   9     -117.11652941      -0.00000000     0.71D-06     0.14D-05     8     0       0.45      4.53    diag
  10     -117.11652941      -0.00000000     0.30D-06     0.47D-06     0     0       0.46      4.99    diag/orth

 Final occupancy:  10   2

 !RHF STATE 1.1 Energy               -117.116529407680
  RHF One-electron energy            -296.845512865769
  RHF Two-electron energy             108.840912903067
  RHF Kinetic energy                  116.970258971762
  RHF Nuclear energy                   70.888070555023
  RHF Virial quotient                  -1.001250492537

 !RHF STATE 1.1 Dipole moment          -0.15408583    -0.01285211     0.00000000
 Dipole moment /Debye                  -0.39164710    -0.03266681     0.00000000

 Orbital energies:

           1.1          2.1          3.1          4.1          5.1          6.1          7.1          8.1          9.1         10.1
    -11.231696   -11.220707   -11.214882    -1.064389    -0.932939    -0.756588    -0.638630    -0.583245    -0.523354    -0.489405

          11.1         12.1
      0.147447     0.178453

           1.2          2.2          3.2          4.2
     -0.566485    -0.359518     0.166072     0.219798


 HOMO      2.2    -0.359518 =      -9.7830eV
 LUMO     11.1     0.147447 =       4.0122eV
 LUMO-HOMO         0.506966 =      13.7952eV

 Orbitals saved in record  2100.2


 **********************************************************************************************************************************
 DATASETS  * FILE   NREC   LENGTH (MB)   RECORD NAMES
              1      19      250.01       500      610      700      900      950      970     1000      129      960     1100   
                                          VAR    BASINP    GEOM    SYMINP    ZMAT    AOBASIS   BASIS     P2S    ABASIS      S 
                                         1400     1410     1200     1210     1080     1600     1650     1300     1700   
                                           T        V       H0       H01     AOSYM     SMH    MOLCAS    ERIS     OPER   

              2       4        0.79       700     1000      520     2100   
                                         GEOM     BASIS   MCVARS     RHF  

 PROGRAMS   *        TOTAL    HF-SCF       INT
 CPU TIMES  *        14.94      5.00      9.81
 REAL TIME  *        23.59 SEC
 DISK USED  *       917.09 MB
 **********************************************************************************************************************************

 Dump information in style XML to xml output                                                                      

 Orbitals will not be exported.

 **********************************************************************************************************************************

 HF/cc-pVTZ energy=   -117.116529407680

          HF-SCF
   -117.11652941
 **********************************************************************************************************************************
 Molpro calculation terminated
