
 Working directory              : /home/jovyan/scratch/molpro.2kGDV4Ht3a/
 Global scratch directory       : /home/jovyan/scratch/molpro.2kGDV4Ht3a/
 Wavefunction directory         : /home/jovyan/wfu/
 Main file repository           : /home/jovyan/scratch/molpro.2kGDV4Ht3a/

 id        : cardiff

 Nodes                nprocs
 jupyter-c-2efrancisan    1
 GA implementation: MPI file
 GA implementation (serial work in mppx): MPI file

 Using customized tuning parameters: mindgm=1; mindgv=20; mindgc=4; mindgr=1; noblas=0; minvec=7
 default implementation of scratch files=df  


 Variables initialized (1031), CPU time= 0.00 sec
 
 
 
 geometry={
            4
     C          0.00000000      0.00000000     -0.61465700
     H          0.00000000      0.00000000     -1.67439300
     N          0.00000000      0.00000000      0.54494500
     O          0.00000000      0.00000000      1.74410500
 }
 basis=cc-pVDZ
 angstrom
 
 
 hf; ccsd
 
 
 
 {put,xml;noorbitals,nobasis}
 Commands initialized (841), CPU time= 0.01 sec, 704 directives.
 Default parameters read. Elapsed time= 0.08 sec

 Checking input...
 Passed
1


                                         ***  PROGRAM SYSTEM MOLPRO  ***
                                       Copyright, TTI GmbH Stuttgart, 2015
                                    Version 2023.1 linked Mon Jun  5 13:27:10 2023


 **********************************************************************************************************************************
 LABEL *                                                                                                                                                                 
  (16 PROC) 64 bit serial version                                                        DATE: 03-Aug-23          TIME: 11:31:33  
 **********************************************************************************************************************************

 SHA1:             9738a14712571edd23541b6d7c4f3a3d766f8287
 **********************************************************************************************************************************

 Memory per process:       805 MW
 Total memory per node:   1074 MW
 Total GA space:           268 MW

 GA preallocation disabled
 GA check enabled

 Geometry recognized as XYZ


 Variable memory set to 805.3 MW

 SETTING BASIS          =    CC-PVDZ


 Recomputing integrals since basis changed


 Using spherical harmonics

 Library entry C      S cc-pVDZ              selected for orbital group  1
 Library entry C      P cc-pVDZ              selected for orbital group  1
 Library entry C      D cc-pVDZ              selected for orbital group  1
 Library entry H      S cc-pVDZ              selected for orbital group  2
 Library entry H      P cc-pVDZ              selected for orbital group  2
 Library entry N      S cc-pVDZ              selected for orbital group  3
 Library entry N      P cc-pVDZ              selected for orbital group  3
 Library entry N      D cc-pVDZ              selected for orbital group  3
 Library entry O      S cc-pVDZ              selected for orbital group  4
 Library entry O      P cc-pVDZ              selected for orbital group  4
 Library entry O      D cc-pVDZ              selected for orbital group  4


 PROGRAM * SEWARD (Integral evaluation for generally contracted gaussian basis sets)     Author: Roland Lindh, 1990

 Geometry written to block  1 of record 700


 Point group  C2v 



 ATOMIC COORDINATES

 NR  ATOM    CHARGE       X              Y              Z

   1  C       6.00    0.000000000    0.000000000   -1.161533391
   2  H       1.00    0.000000000    0.000000000   -3.164144195
   3  N       7.00    0.000000000    0.000000000    1.029796803
   4  O       8.00    0.000000000    0.000000000    3.295880783

 Bond lengths in Bohr (Angstrom)

 1-2  2.002610804  1-3  2.191330194  3-4  2.266083980
     ( 1.059736000)     ( 1.159602000)     ( 1.199160000)

 Bond angles

  1-3-4  179.99999791   2-1-3  179.99999879

 NUCLEAR CHARGE:                   22
 NUMBER OF PRIMITIVE AOS:          88
 NUMBER OF SYMMETRY AOS:           85
 NUMBER OF CONTRACTIONS:           47   (   24A1  +   10B1  +   10B2  +    3A2  )
 NUMBER OF INNER CORE ORBITALS:     0   (    0A1  +    0B1  +    0B2  +    0A2  )
 NUMBER OF OUTER CORE ORBITALS:     3   (    3A1  +    0B1  +    0B2  +    0A2  )
 NUMBER OF VALENCE ORBITALS:       13   (    7A1  +    3B1  +    3B2  +    0A2  )


 NUCLEAR REPULSION ENERGY   60.55079965

 EXTRA SYMMETRY OF AOS IN SYMMETRY 1:   1 1 1 1 1 1 2 1 1 1   1 1 1 1 1 1 2 1 1 1   1 1 1 2

 Eigenvalues of metric

         1 0.490E-02 0.691E-02 0.184E-01 0.218E-01 0.449E-01 0.718E-01 0.783E-01 0.126E+00
         2 0.951E-01 0.164E+00 0.204E+00 0.237E+00 0.565E+00 0.604E+00 0.119E+01 0.175E+01
         3 0.951E-01 0.164E+00 0.204E+00 0.237E+00 0.565E+00 0.604E+00 0.119E+01 0.175E+01
         4 0.792E+00 0.100E+01 0.121E+01


 Contracted 2-electron integrals neglected if value below      1.0D-11
 AO integral compression algorithm  1   Integral accuracy      1.0D-11

     1.049 MB (compressed) written to integral file ( 71.6%)


 NUMBER OF SORTED TWO-ELECTRON INTEGRALS:     185306.     BUFFER LENGTH:  32768
 NUMBER OF SEGMENTS:   1  SEGMENT LENGTH:     185306      RECORD LENGTH: 524288

 Memory used in sort:       0.74 MW

 SORT1 READ      222595. AND WROTE      165311. INTEGRALS IN      1 RECORDS. CPU TIME:     0.01 SEC, REAL TIME:     0.02 SEC
 SORT2 READ      165311. AND WROTE      185306. INTEGRALS IN      4 RECORDS. CPU TIME:     0.02 SEC, REAL TIME:     0.02 SEC

 FILE SIZES:   FILE 1:    31.1 MBYTE,  FILE 4:     4.3 MBYTE,   TOTAL:     35.4 MBYTE

 OPERATOR DM      FOR CENTER  0  COORDINATES:    0.000000    0.000000    0.000000


 **********************************************************************************************************************************
 DATASETS  * FILE   NREC   LENGTH (MB)   RECORD NAMES
              1      19       29.47       500      610      700      900      950      970     1000      129      960     1100   
                                          VAR    BASINP    GEOM    SYMINP    ZMAT    AOBASIS   BASIS     P2S    ABASIS      S 
                                         1400     1410     1200     1210     1080     1600     1650     1300     1700   
                                           T        V       H0       H01     AOSYM     SMH    MOLCAS    ERIS     OPER   

 PROGRAMS   *        TOTAL       INT
 CPU TIMES  *         0.63      0.50
 REAL TIME  *         1.81 SEC
 DISK USED  *        34.14 MB
 **********************************************************************************************************************************


 Program * Restricted Hartree-Fock

 Orbital guess generated from atomic densities. Full valence occupancy:   10   3   3   0

 Initial occupancy:   7   2   2   0

 NELEC=   22   SYM=1   MS2= 0   THRE=1.0D-08   THRD=3.2D-06   THRG=3.2D-06  HFMA2=F  DIIS_START=2   DIIS_MAX=10   DIIS_INCORE=F

 Level shifts:    0.00 (CLOSED)    0.00 (OPEN)    0.30 (GAP_MIN)

 ITER           ETOT              DE          GRAD        DDIFF     DIIS  NEXP   TIME(IT)  TIME(TOT)  DIAG
   1     -167.58930943    -167.58930943     0.00D+00     0.29D+00     0     0       0.01      0.01    start
   2     -167.61888950      -0.02958007     0.22D-01     0.43D-01     1     0       0.00      0.01    diag
   3     -167.64314300      -0.02425350     0.15D-01     0.19D-01     2     0       0.00      0.01    diag
   4     -167.64377965      -0.00063665     0.21D-02     0.34D-02     3     0       0.00      0.01    diag
   5     -167.64388097      -0.00010132     0.67D-03     0.17D-02     4     0       0.00      0.01    diag
   6     -167.64391555      -0.00003458     0.46D-03     0.74D-03     5     0       0.00      0.01    diag
   7     -167.64391823      -0.00000267     0.82D-04     0.25D-03     6     0       0.01      0.02    diag
   8     -167.64391833      -0.00000011     0.19D-04     0.54D-04     7     0       0.00      0.02    fixocc
   9     -167.64391833      -0.00000000     0.34D-05     0.94D-05     8     0       0.00      0.02    diag
  10     -167.64391833      -0.00000000     0.32D-06     0.84D-06     9     0       0.00      0.02    diag/orth
  11     -167.64391833      -0.00000000     0.49D-07     0.11D-06     0     0       0.01      0.03    diag

 Final occupancy:   7   2   2   0

 !RHF STATE 1.1 Energy               -167.643918333274
  RHF One-electron energy            -348.170845256892
  RHF Two-electron energy             119.976127273434
  RHF Kinetic energy                  167.435539403763
  RHF Nuclear energy                   60.550799650184
  RHF Virial quotient                  -1.001244532256

 !RHF STATE 1.1 Dipole moment           0.00000000     0.00000000    -1.61807650
 Dipole moment /Debye                   0.00000000     0.00000000    -4.11274023

 Orbital energies:

           1.1          2.1          3.1          4.1          5.1          6.1          7.1          8.1          9.1
    -20.580354   -15.764168   -11.323192    -1.514369    -1.229514    -0.814929    -0.726070     0.171064     0.302905

           1.2          2.2          3.2          4.2
     -0.676584    -0.401765     0.175409     0.654419

           1.3          2.3          3.3          4.3
     -0.676584    -0.401765     0.175409     0.654419

           1.4          2.4
      1.301953     2.032315


 HOMO      2.3    -0.401765 =     -10.9326eV
 LUMO      8.1     0.171064 =       4.6549eV
 LUMO-HOMO         0.572829 =      15.5875eV

 Orbitals saved in record  2100.2


 **********************************************************************************************************************************
 DATASETS  * FILE   NREC   LENGTH (MB)   RECORD NAMES
              1      19       29.47       500      610      700      900      950      970     1000      129      960     1100   
                                          VAR    BASINP    GEOM    SYMINP    ZMAT    AOBASIS   BASIS     P2S    ABASIS      S 
                                         1400     1410     1200     1210     1080     1600     1650     1300     1700   
                                           T        V       H0       H01     AOSYM     SMH    MOLCAS    ERIS     OPER   

              2       4        0.44       700     1000      520     2100   
                                         GEOM     BASIS   MCVARS     RHF  

 PROGRAMS   *        TOTAL    HF-SCF       INT
 CPU TIMES  *         0.66      0.03      0.50
 REAL TIME  *         1.85 SEC
 DISK USED  *        34.14 MB
 **********************************************************************************************************************************


 PROGRAM * CCSD (Closed-shell coupled cluster)     Authors: C. Hampel, H.-J. Werner, 1991, M. Deegan, P.J. Knowles, 1992


 Convergence thresholds:  THRVAR = 1.00D-08  THRDEN = 1.00D-06

 Number of core orbitals:           3 (   3   0   0   0 )
 Number of closed-shell orbitals:   8 (   4   2   2   0 )
 Number of external orbitals:      36 (  17   8   8   3 )

 Molecular orbitals read from record     2100.2  Type=RHF/CANONICAL  

 Number of N-1 electron functions:               8
 Number of N-2 electron functions:              36
 Number of singly external CSFs:               100
 Number of doubly external CSFs:             11296
 Total number of CSFs:                       11397

 Length of J-op  integral file:               0.00 MB
 Length of K-op  integral file:               0.12 MB
 Length of 3-ext integral record:             0.00 MB

 Integral transformation finished. Total CPU:   0.00 sec, npass=  1  Memory used:   0.12 MW

 Reference energy:                   -167.64391833

 MP2 singlet pair energy:              -0.28833948
 MP2 triplet pair energy:              -0.20304610
 MP2 correlation energy:               -0.49138558
 MP2 total energy:                   -168.13530391

 SCS-MP2 correlation energy:           -0.47234717   (PS=  1.200000  PT=  0.333333)
 SCS-MP2 total energy:               -168.11626550

 ITER.      SQ.NORM     CORR.ENERGY   TOTAL ENERGY   ENERGY CHANGE        DEN1      VAR(S)    VAR(P)  DIIS     TIME  TIME/IT
   1      1.15740481    -0.49076713  -168.13468547     0.00061844     0.02331675  0.89D-02  0.59D-02  1  1     0.92     0.02
   2      1.17116667    -0.48913788  -168.13305621     0.00162926    -0.01587195  0.18D-03  0.85D-03  2  2     0.94     0.02
   3      1.18037092    -0.49000947  -168.13392780    -0.00087159    -0.00367356  0.28D-03  0.78D-04  3  3     0.95     0.02
   4      1.18441502    -0.48973175  -168.13365008     0.00027772    -0.00140006  0.20D-04  0.15D-04  4  4     0.97     0.02
   5      1.18683023    -0.48969037  -168.13360870     0.00004138    -0.00059068  0.15D-05  0.10D-05  5  5     0.98     0.02
   6      1.18722363    -0.48965545  -168.13357378     0.00003492    -0.00004393  0.12D-06  0.11D-06  6  6     1.00     0.02
   7      1.18729203    -0.48964956  -168.13356789     0.00000589    -0.00000578  0.52D-08  0.19D-07  6  2     1.02     0.02
   8      1.18729622    -0.48964949  -168.13356782     0.00000007     0.00000481  0.14D-08  0.18D-08  6  1     1.03     0.02
   9      1.18729775    -0.48964857  -168.13356691     0.00000092     0.00000157  0.12D-09  0.27D-09  6  4     1.05     0.02

 Norm of t1 vector:      0.12355332      S-energy:    -0.00000075      T1 diagnostic:  0.02184135
                                                                       D1 diagnostic:  0.05649445
                                                                       D2 diagnostic:  0.17914859 (external, symmetry=3)

 Doubles amplitudes (print threshold =  0.500E-01):

         I         J         SYM. A    SYM. B    A         B      T(IJ, AB)

         6         6         2         2         1         1     -0.08875517
         8         8         3         3         1         1     -0.08875517
         8         6         3         2         1         1     -0.06091935


 RESULTS
 =======

  Reference energy                   -167.643918333274
  CCSD singlet pair energy             -0.320190297059
  CCSD triplet pair energy             -0.169457522046
  CCSD correlation energy              -0.489648574019

 !CCSD total energy                  -168.133566907293

 Timing summary (sec):

 STEP                 CPU(USER)    SYS     CPU(TOT)    WALL
 CCSD iterations         1.06      0.03      1.09      0.18

 Program statistics:

 Available memory in ccsd:               805306105
 Min. memory needed in ccsd:                 43532
 Max. memory used in ccsd:                   51188
 Max. memory used in cckext:                 89302 ( 9 integral passes)



 **********************************************************************************************************************************
 DATASETS  * FILE   NREC   LENGTH (MB)   RECORD NAMES
              1      20       30.14       500      610      700      900      950      970     1000      129      960     1100   
                                          VAR    BASINP    GEOM    SYMINP    ZMAT    AOBASIS   BASIS     P2S    ABASIS      S 
                                         1400     1410     1200     1210     1080     1600     1650     1300     1700     1380   
                                           T        V       H0       H01     AOSYM     SMH    MOLCAS    ERIS     OPER     JKOP   

              2       4        0.44       700     1000      520     2100   
                                         GEOM     BASIS   MCVARS     RHF  

 PROGRAMS   *        TOTAL      CCSD    HF-SCF       INT
 CPU TIMES  *         0.86      0.20      0.03      0.50
 REAL TIME  *         2.16 SEC
 DISK USED  *        34.14 MB
 **********************************************************************************************************************************

 Dump information in style XML to xml output                                                                      

 Orbitals will not be exported.

 **********************************************************************************************************************************

 CCSD/cc-pVDZ energy=   -168.133566907293

            CCSD          HF-SCF
   -168.13356691   -167.64391833
 **********************************************************************************************************************************
 Molpro calculation terminated
