
 Working directory              : /home/jovyan/scratch/molpro.uOiVTVnmN9/
 Global scratch directory       : /home/jovyan/scratch/molpro.uOiVTVnmN9/
 Wavefunction directory         : /home/jovyan/wfu/
 Main file repository           : /home/jovyan/scratch/molpro.uOiVTVnmN9/

 id        : cardiff

 Nodes                nprocs
 jupyter-c-2efrancisan    1
 GA implementation: MPI file
 GA implementation (serial work in mppx): MPI file

 Using customized tuning parameters: mindgm=1; mindgv=20; mindgc=4; mindgr=1; noblas=0; minvec=7
 default implementation of scratch files=df  


 Variables initialized (1031), CPU time= 0.00 sec
 
 
 
 geometry={
           10
     H          0.00000000     -1.42064151      1.71659501
     C          0.00000000      0.67017024      0.92994073
     C          0.00000000     -0.67017024      0.92994073
     C          0.00000000      0.78631128     -0.58457581
     C          0.00000000     -0.78631128     -0.58457581
     H          0.89010932     -1.24659944     -1.03097997
     H         -0.89010932     -1.24659944     -1.03097997
     H          0.00000000      1.42064151      1.71659501
     H         -0.89010932      1.24659944     -1.03097997
     H          0.89010932      1.24659944     -1.03097997
 }
 basis=cc-pVTZ
 angstrom
 
 
 hf; papt;mp2
 
 
 
 {put,xml;noorbitals,nobasis}
 Commands initialized (841), CPU time= 0.01 sec, 704 directives.
 Default parameters read. Elapsed time= 0.09 sec

 Checking input...
 Passed
1


                                         ***  PROGRAM SYSTEM MOLPRO  ***
                                       Copyright, TTI GmbH Stuttgart, 2015
                                    Version 2023.1 linked Mon Jun  5 13:27:10 2023


 **********************************************************************************************************************************
 LABEL *                                                                                                                                                                 
  (16 PROC) 64 bit serial version                                                        DATE: 03-Aug-23          TIME: 10:52:08  
 **********************************************************************************************************************************

 SHA1:             9738a14712571edd23541b6d7c4f3a3d766f8287
 **********************************************************************************************************************************

 Memory per process:       805 MW
 Total memory per node:   1074 MW
 Total GA space:           268 MW

 GA preallocation disabled
 GA check enabled

 Geometry recognized as XYZ


 Variable memory set to 805.3 MW

 SETTING BASIS          =    CC-PVTZ


 Recomputing integrals since basis changed


 Using spherical harmonics

 Library entry H      S cc-pVTZ              selected for orbital group  1
 Library entry H      P cc-pVTZ              selected for orbital group  1
 Library entry H      D cc-pVTZ              selected for orbital group  1
 Library entry C      S cc-pVTZ              selected for orbital group  2
 Library entry C      P cc-pVTZ              selected for orbital group  2
 Library entry C      D cc-pVTZ              selected for orbital group  2
 Library entry C      F cc-pVTZ              selected for orbital group  2


 PROGRAM * SEWARD (Integral evaluation for generally contracted gaussian basis sets)     Author: Roland Lindh, 1990

 Geometry written to block  1 of record 700


 Point group  C2v 



 ATOMIC COORDINATES

 NR  ATOM    CHARGE       X              Y              Z

   1  H       1.00    0.000000000   -2.684623375    3.243894436
   2  H       1.00    0.000000000    2.684623375    3.243894436
   3  C       6.00    0.000000000    1.266438210    1.757333292
   4  C       6.00    0.000000000   -1.266438210    1.757333292
   5  C       6.00    0.000000000    1.485912968   -1.104688180
   6  C       6.00    0.000000000   -1.485912968   -1.104688180
   7  H       1.00    1.682062836   -2.355731529   -1.948269783
   8  H       1.00   -1.682062836   -2.355731529   -1.948269783
   9  H       1.00   -1.682062836    2.355731529   -1.948269783
  10  H       1.00    1.682062836    2.355731529   -1.948269783

 Bond lengths in Bohr (Angstrom)

 1-4  2.054534788  2-3  2.054534788  3-4  2.532876421  3-5  2.870424372  3-6  3.970718312
     ( 1.087212989)     ( 1.087212989)     ( 1.340340480)     ( 1.518963163)     ( 2.101213642)

  4- 5  3.970718312   4- 6  2.870424372   5- 6  2.971825936   5- 9  2.073053215   5-10  2.073053215
       ( 2.101213642)       ( 1.518963163)       ( 1.572622560)       ( 1.097012519)       ( 1.097012519)

 6-7  2.073053215  6-8  2.073053215
     ( 1.097012519)     ( 1.097012519)

 Bond angles

  1-4-3  133.65154087   1-4-5  179.77060551   1-4-6  131.96330183   2-3-4  133.65154087

  2-3-5  131.96330183   2-3-6  179.77060551   3-4-5   46.11906464   3-4-6   94.38515730

  3- 5- 4   39.49577806   3- 5- 6   85.61484270   3- 5- 9  115.96471444   3- 5-10  115.96471444

  3-6-4   39.49577806   3-6-5   46.11906464   3-6-7  125.74260410   3-6-8  125.74260410

  4-3-5   94.38515730   4-3-6   46.11906464   4-5-6   46.11906464   4-5-9  125.74260410

  4- 5-10  125.74260410   4- 6- 5   85.61484270   4- 6- 7  115.96471444   4- 6- 8  115.96471444

  5-3-6   48.26609266   5-4-6   48.26609266   5-6-7  114.80828385   5-6-8  114.80828385

  6- 5- 9  114.80828385   6- 5-10  114.80828385   7- 6- 8  108.46469695   9- 5-10  108.46469695

 NUCLEAR CHARGE:                   30
 NUMBER OF PRIMITIVE AOS:         290
 NUMBER OF SYMMETRY AOS:          264
 NUMBER OF CONTRACTIONS:          204   (   64A1  +   38B1  +   64B2  +   38A2  )
 NUMBER OF INNER CORE ORBITALS:     0   (    0A1  +    0B1  +    0B2  +    0A2  )
 NUMBER OF OUTER CORE ORBITALS:     4   (    2A1  +    0B1  +    2B2  +    0A2  )
 NUMBER OF VALENCE ORBITALS:       22   (    8A1  +    3B1  +    8B2  +    3A2  )


 NUCLEAR REPULSION ENERGY  112.98875052

 Eigenvalues of metric

         1 0.133E-02 0.142E-02 0.187E-02 0.323E-02 0.619E-02 0.768E-02 0.135E-01 0.149E-01
         2 0.151E-02 0.971E-02 0.225E-01 0.301E-01 0.414E-01 0.623E-01 0.811E-01 0.998E-01
         3 0.110E-03 0.825E-03 0.115E-02 0.143E-02 0.155E-02 0.256E-02 0.355E-02 0.545E-02
         4 0.106E-02 0.474E-02 0.111E-01 0.127E-01 0.214E-01 0.293E-01 0.404E-01 0.497E-01


 Contracted 2-electron integrals neglected if value below      1.0D-11
 AO integral compression algorithm  1   Integral accuracy      1.0D-11

     290.718 MB (compressed) written to integral file ( 51.1%)


 NUMBER OF SORTED TWO-ELECTRON INTEGRALS:   55743977.     BUFFER LENGTH:  32768
 NUMBER OF SEGMENTS:   4  SEGMENT LENGTH:   15999843      RECORD LENGTH: 524288

 Memory used in sort:      16.56 MW

 SORT1 READ    71176704. AND WROTE    54804653. INTEGRALS IN    159 RECORDS. CPU TIME:     1.63 SEC, REAL TIME:     2.20 SEC
 SORT2 READ    54804653. AND WROTE    55743977. INTEGRALS IN   1109 RECORDS. CPU TIME:     1.46 SEC, REAL TIME:     1.74 SEC

 FILE SIZES:   FILE 1:   321.8 MBYTE,  FILE 4:   667.0 MBYTE,   TOTAL:    988.8 MBYTE

 OPERATOR DM      FOR CENTER  0  COORDINATES:    0.000000    0.000000    0.000000


 **********************************************************************************************************************************
 DATASETS  * FILE   NREC   LENGTH (MB)   RECORD NAMES
              1      19      254.69       500      610      700      900      950      970     1000      129      960     1100   
                                          VAR    BASINP    GEOM    SYMINP    ZMAT    AOBASIS   BASIS     P2S    ABASIS      S 
                                         1400     1410     1200     1210     1080     1600     1650     1300     1700   
                                           T        V       H0       H01     AOSYM     SMH    MOLCAS    ERIS     OPER   

 PROGRAMS   *        TOTAL       INT
 CPU TIMES  *        13.88     13.74
 REAL TIME  *        16.78 SEC
 DISK USED  *       943.48 MB
 **********************************************************************************************************************************


 Program * Restricted Hartree-Fock

 Orbital guess generated from atomic densities. Full valence occupancy:   10   3  10   3

 Initial occupancy:   7   2   5   1

 NELEC=   30   SYM=1   MS2= 0   THRE=1.0D-08   THRD=3.2D-06   THRG=3.2D-06  HFMA2=F  DIIS_START=2   DIIS_MAX=10   DIIS_INCORE=F

 Level shifts:    0.00 (CLOSED)    0.00 (OPEN)    0.30 (GAP_MIN)

 ITER           ETOT              DE          GRAD        DDIFF     DIIS  NEXP   TIME(IT)  TIME(TOT)  DIAG
   1     -154.90705470    -154.90705470     0.00D+00     0.99D-01     0     0       0.24      0.47    start
   2     -154.94627748      -0.03922278     0.60D-02     0.86D-02     1     0       0.25      0.72    diag
   3     -154.95163637      -0.00535889     0.24D-02     0.29D-02     2     0       0.24      0.96    diag
   4     -154.95258159      -0.00094522     0.85D-03     0.11D-02     3     0       0.24      1.20    diag
   5     -154.95260544      -0.00002385     0.10D-03     0.29D-03     4     0       0.24      1.44    diag
   6     -154.95260664      -0.00000120     0.30D-04     0.55D-04     5     0       0.24      1.68    diag
   7     -154.95260675      -0.00000012     0.83D-05     0.19D-04     6     0       0.24      1.92    diag
   8     -154.95260676      -0.00000000     0.15D-05     0.31D-05     7     0       0.24      2.16    fixocc
   9     -154.95260676      -0.00000000     0.34D-06     0.74D-06     0     0       0.25      2.41    diag

 Final occupancy:   7   2   5   1

 !RHF STATE 1.1 Energy               -154.952606759840
  RHF One-electron energy            -431.644129414712
  RHF Two-electron energy             163.702772130155
  RHF Kinetic energy                  154.665244797007
  RHF Nuclear energy                  112.988750524717
  RHF Virial quotient                  -1.001857960806

 !RHF STATE 1.1 Dipole moment           0.00000000     0.00000000    -0.02630490
 Dipole moment /Debye                   0.00000000     0.00000000    -0.06686038

 Orbital energies:

           1.1          2.1          3.1          4.1          5.1          6.1          7.1          8.1          9.1
    -11.228166   -11.227468    -1.142205    -0.895362    -0.671769    -0.531498    -0.461442     0.152241     0.177833

           1.2          2.2          3.2          4.2
     -0.619700    -0.349758     0.191275     0.452762

           1.3          2.3          3.3          4.3          5.3          6.3          7.3
    -11.227267   -11.226221    -0.874743    -0.705627    -0.454236     0.174007     0.204813

           1.4          2.4          3.4
     -0.503828     0.165400     0.245460


 HOMO      2.2    -0.349758 =      -9.5174eV
 LUMO      8.1     0.152241 =       4.1427eV
 LUMO-HOMO         0.501999 =      13.6601eV

 Orbitals saved in record  2100.2


 **********************************************************************************************************************************
 DATASETS  * FILE   NREC   LENGTH (MB)   RECORD NAMES
              1      19      254.69       500      610      700      900      950      970     1000      129      960     1100   
                                          VAR    BASINP    GEOM    SYMINP    ZMAT    AOBASIS   BASIS     P2S    ABASIS      S 
                                         1400     1410     1200     1210     1080     1600     1650     1300     1700   
                                           T        V       H0       H01     AOSYM     SMH    MOLCAS    ERIS     OPER   

              2       4        0.73       700     1000      520     2100   
                                         GEOM     BASIS   MCVARS     RHF  

 PROGRAMS   *        TOTAL    HF-SCF       INT
 CPU TIMES  *        16.29      2.41     13.74
 REAL TIME  *        19.50 SEC
 DISK USED  *       943.48 MB
 **********************************************************************************************************************************


 PROGRAM * PAPT (Closed-shell)     Authors: C. Hampel, H.-J. Werner, 1991, P.J. Knowles, 2021


 Convergence thresholds:  THRVAR = 1.00D-08  THRDEN = 1.00D-06

 Number of core orbitals:           4 (   2   0   2   0 )
 Number of closed-shell orbitals:  11 (   5   2   3   1 )
 Number of external orbitals:     189 (  57  36  59  37 )

 Molecular orbitals read from record     2100.2  Type=RHF/CANONICAL  

 Number of N-1 electron functions:              11
 Number of N-2 electron functions:              66
 Number of singly external CSFs:               571
 Number of doubly external CSFs:            547108
 Total number of CSFs:                      547680

 Length of J-op  integral file:               0.00 MB
 Length of K-op  integral file:               0.82 MB

 Integral transformation finished. Total CPU:   0.66 sec, npass=  1  Memory used:   0.83 MW

 Reference energy:                   -154.95260676

                        CORR.ENERGY   TOTAL ENERGY   ENERGY CHANGE
 MP2:                   -0.66021211  -155.61281887    -0.66021211

 SCS-MP2 correlation energy:           -0.66050985   (PS=  1.200000  PT=  0.333333)
 SCS-MP2 total energy:               -155.61311661
 Iteration:   1     0.2468D+00
 Iteration:   2     0.3566D+00
 Iteration:   3     0.7930D-01
 Iteration:   4     0.8746D-01
 Iteration:   5     0.4286D-01
 Iteration:   6     0.2176D-01
 Iteration:   7     0.6314D-01
 Iteration:   8     0.6870D-02
 Iteration:   9     0.1200D-01
 Iteration:  10     0.3003D-02
 Iteration:  11     0.2073D-02
 Iteration:  12     0.3384D-02
 Iteration:  13     0.7191D-03
 Iteration:  14     0.1339D-02
 Iteration:  15     0.2544D-03
 Iteration:  16     0.1331D-03
 Iteration:  17     0.3894D-03
 Iteration:  18     0.2762D-04
 PAPT operator written to  7000.1
 PAPT orbitals and eigenvalues written to  7000.2

 MP3(D):                -0.69132429  -155.64393105    -0.03111218



 RESULTS
 =======

  Reference energy                   -154.952606759840
  MP3 singlet pair energy              -0.476104801452
  MP3 triplet pair energy              -0.215219485481
  MP3 correlation energy               -0.691324286933

 !MP3 total energy                   -155.643931046773

 Timing summary (sec):

 STEP                 CPU(USER)    SYS     CPU(TOT)    WALL
 Transformation          0.69      0.09      0.78      0.92
 CCSD iterations        18.92      0.12     19.04      2.61

 Program statistics:

 Available memory in ccsd:               805305877
 Min. memory needed in ccsd:               1479773
 Max. memory used in ccsd:                 1960261
 Max. memory used in cckext:               1794221 ( 1 integral passes)



 **********************************************************************************************************************************
 DATASETS  * FILE   NREC   LENGTH (MB)   RECORD NAMES
              1      21      262.93       500      610      700      900      950      970     1000      129      960     1100   
                                          VAR    BASINP    GEOM    SYMINP    ZMAT    AOBASIS   BASIS     P2S    ABASIS      S 
                                         1400     1410     1200     1210     1080     1600     1650     1300     1700     1380   
                                           T        V       H0       H01     AOSYM     SMH    MOLCAS    ERIS     OPER     JKOP   
                                         7000   
                                        PAPT AO    

              2       5        1.09       700     1000      520     2100     7000   
                                         GEOM     BASIS   MCVARS     RHF     PAPT   

 PROGRAMS   *        TOTAL      PAPT    HF-SCF       INT
 CPU TIMES  *        19.42      3.13      2.41     13.74
 REAL TIME  *        23.09 SEC
 DISK USED  *       943.48 MB
 **********************************************************************************************************************************


 PROGRAM * MP2 (Closed-shell)     Authors: C. Hampel, H.-J. Werner, 1991, M. Deegan, P.J. Knowles, 1992


 Convergence thresholds:  THRVAR = 1.00D-08  THRDEN = 1.00D-06

 Number of core orbitals:           4 (   2   0   2   0 )
 Number of closed-shell orbitals:  11 (   5   2   3   1 )
 Number of external orbitals:     189 (  57  36  59  37 )

 Molecular orbitals read from record     7000.2  Type=PAPT/CANONICAL (state 1.1)

 Number of N-1 electron functions:              11
 Number of N-2 electron functions:              66
 Number of singly external CSFs:               571
 Number of doubly external CSFs:            547108
 Total number of CSFs:                      547680

 Length of J-op  integral file:               0.00 MB
 Length of K-op  integral file:               0.82 MB

 Integral transformation finished. Total CPU:   0.66 sec, npass=  1  Memory used:   0.83 MW
 Orbital energies read from record       7000.2  Type=PAPT/CANONICAL (state 1.1)

 Memory needed for MP2:                      0.05 MW

 SCS-MP2 correlation energy:           -0.702900379693   (PS=  1.200000  PT=  0.333333)
 SCS-MP2 total energy:               -155.655507139533


  Reference energy                   -154.952606759840
  MP2 singlet pair energy              -0.464041352361
  MP2 triplet pair energy              -0.234724430668
  MP2 correlation energy               -0.698765783029

 !MP2 total energy                   -155.651372542869


 **********************************************************************************************************************************
 DATASETS  * FILE   NREC   LENGTH (MB)   RECORD NAMES
              1      21      262.93       500      610      700      900      950      970     1000      129      960     1100   
                                          VAR    BASINP    GEOM    SYMINP    ZMAT    AOBASIS   BASIS     P2S    ABASIS      S 
                                         1400     1410     1200     1210     1080     1600     1650     1300     1700     1380   
                                           T        V       H0       H01     AOSYM     SMH    MOLCAS    ERIS     OPER     JKOP   
                                         7000   
                                        PAPT AO    

              2       5        1.09       700     1000      520     2100     7000   
                                         GEOM     BASIS   MCVARS     RHF     PAPT   

 PROGRAMS   *        TOTAL       MP2      PAPT    HF-SCF       INT
 CPU TIMES  *        20.42      1.00      3.13      2.41     13.74
 REAL TIME  *        24.28 SEC
 DISK USED  *       943.48 MB
 **********************************************************************************************************************************

 Dump information in style XML to xml output                                                                      

 Orbitals will not be exported.

 **********************************************************************************************************************************

 MP2/cc-pVTZ energy=   -155.651372542869

             MP2            PAPT          HF-SCF
   -155.65137254   -155.64393105   -154.95260676
 **********************************************************************************************************************************
 Molpro calculation terminated
