
 Working directory              : /home/jovyan/scratch/molpro.2p8vHJAMaw/
 Global scratch directory       : /home/jovyan/scratch/molpro.2p8vHJAMaw/
 Wavefunction directory         : /home/jovyan/wfu/
 Main file repository           : /home/jovyan/scratch/molpro.2p8vHJAMaw/

 id        : cardiff

 Nodes                nprocs
 jupyter-c-2efrancisan    1
 GA implementation: MPI file
 GA implementation (serial work in mppx): MPI file

 Using customized tuning parameters: mindgm=1; mindgv=20; mindgc=4; mindgr=1; noblas=0; minvec=7
 default implementation of scratch files=df  


 Variables initialized (1031), CPU time= 0.01 sec
 
 
 
 geometry={
 20
  C    -0.0207058   -0.7667877    0.0000000
  C     0.0207058    0.7667877    0.0000000
  C     0.6956377    1.3103885    1.2529874
  C     0.6956377    1.3103885   -1.2529874
  H    -1.0164326    1.1164572    0.0000000
  C    -0.6956377   -1.3103885   -1.2529874
  C    -0.6956377   -1.3103885    1.2529874
  H     1.0164326   -1.1164572    0.0000000
  H     0.8029041    2.3913793    1.1998404
  H     0.1285111    1.0817107    2.1497585
  H     1.6917129    0.8829484    1.3708423
  H     0.1285111    1.0817107   -2.1497585
  H     0.8029041    2.3913793   -1.1998404
  H     1.6917129    0.8829484   -1.3708423
  H    -0.8029041   -2.3913793    1.1998404
  H    -0.1285111   -1.0817107    2.1497585
  H    -1.6917129   -0.8829484    1.3708423
  H    -0.8029041   -2.3913793   -1.1998404
  H    -1.6917129   -0.8829484   -1.3708423
  H    -0.1285111   -1.0817107   -2.1497585
 }
 basis=cc-pVDZ
 angstrom
 
 
 hf; mp4
 
 
 
 {put,xml;noorbitals,nobasis}
 Commands initialized (841), CPU time= 0.01 sec, 704 directives.
 Default parameters read. Elapsed time= 0.08 sec

 Checking input...
 Passed
1


                                         ***  PROGRAM SYSTEM MOLPRO  ***
                                       Copyright, TTI GmbH Stuttgart, 2015
                                    Version 2023.1 linked Mon Jun  5 13:27:10 2023


 **********************************************************************************************************************************
 LABEL *                                                                                                                                                                 
  (16 PROC) 64 bit serial version                                                        DATE: 03-Aug-23          TIME: 13:52:45  
 **********************************************************************************************************************************

 SHA1:             9738a14712571edd23541b6d7c4f3a3d766f8287
 **********************************************************************************************************************************

 Memory per process:       805 MW
 Total memory per node:   1074 MW
 Total GA space:           268 MW

 GA preallocation disabled
 GA check enabled

 Geometry recognized as XYZ


 Variable memory set to 805.3 MW

 SETTING BASIS          =    CC-PVDZ


 Recomputing integrals since basis changed


 Using spherical harmonics

 Library entry C      S cc-pVDZ              selected for orbital group  1
 Library entry C      P cc-pVDZ              selected for orbital group  1
 Library entry C      D cc-pVDZ              selected for orbital group  1
 Library entry H      S cc-pVDZ              selected for orbital group  2
 Library entry H      P cc-pVDZ              selected for orbital group  2


 PROGRAM * SEWARD (Integral evaluation for generally contracted gaussian basis sets)     Author: Roland Lindh, 1990

 Geometry written to block  1 of record 700


 Point group  C2h 



 ATOMIC COORDINATES

 NR  ATOM    CHARGE       X              Y              Z

   1  C       6.00   -0.039128291   -1.449018749    0.000000000
   2  C       6.00    0.039128291    1.449018749    0.000000000
   3  C       6.00    1.314564735    2.476275382    2.367803024
   4  C       6.00    1.314564735    2.476275382   -2.367803024
   5  C       6.00   -1.314564735   -2.476275382   -2.367803024
   6  C       6.00   -1.314564735   -2.476275382    2.367803024
   7  H       1.00   -1.920779238    2.109798338    0.000000000
   8  H       1.00    1.920779238   -2.109798338    0.000000000
   9  H       1.00    1.517268853    4.519051937    2.267369749
  10  H       1.00    1.517268853    4.519051937   -2.267369749
  11  H       1.00   -1.517268853   -4.519051937    2.267369749
  12  H       1.00   -1.517268853   -4.519051937   -2.267369749
  13  H       1.00    0.242850783    2.044136969    4.062454799
  14  H       1.00    0.242850783    2.044136969   -4.062454799
  15  H       1.00   -0.242850783   -2.044136969    4.062454799
  16  H       1.00   -0.242850783   -2.044136969   -4.062454799
  17  H       1.00    3.196874062    1.668530658    2.590516507
  18  H       1.00    3.196874062    1.668530658   -2.590516507
  19  H       1.00   -3.196874062   -1.668530658    2.590516507
  20  H       1.00   -3.196874062   -1.668530658   -2.590516507

 Bond lengths in Bohr (Angstrom)

 1-2  2.899093898  1-5  2.878972989  1-6  2.878972989  1-8  2.068300556  2-3  2.878972989
     ( 1.534134423)     ( 1.523486897)     ( 1.523486897)     ( 1.094497519)     ( 1.523486897)

  2- 4  2.878972989   2- 7  2.068300556   3- 9  2.055264425   3-13  2.051136037   3-17  2.060374053
       ( 1.523486897)       ( 1.094497519)       ( 1.087599096)       ( 1.085414447)       ( 1.090302995)

  4-10  2.055264425   4-14  2.051136037   4-18  2.060374053   5-12  2.055264425   5-16  2.051136037
       ( 1.087599096)       ( 1.085414447)       ( 1.090302995)       ( 1.087599096)       ( 1.085414447)

  5-20  2.060374053   6-11  2.055264425   6-15  2.051136037   6-19  2.060374053
       ( 1.090302995)       ( 1.087599096)       ( 1.085414447)       ( 1.090302995)

 Bond angles

  1- 2- 3  111.63189875   1- 2- 4  111.63189875   1- 2- 7  107.08464970   1- 5-12  110.98656281

  1- 5-16  111.89191699   1- 5-20  110.71670868   1- 6-11  110.98656281   1- 6-15  111.89191699

  1- 6-19  110.71670868   2- 1- 5  111.63189875   2- 1- 6  111.63189875   2- 1- 8  107.08464970

  2- 3- 9  110.98656281   2- 3-13  111.89191699   2- 3-17  110.71670868   2- 4-10  110.98656281

  2- 4-14  111.89191699   2- 4-18  110.71670868   3- 2- 4  110.66102955   3- 2- 7  107.80666685

  4-2-7  107.80666685   5-1-6  110.66102955   5-1-8  107.80666685   6-1-8  107.80666685

  9- 3-13  107.53618669   9- 3-17  107.74823130  10- 4-14  107.53618669  10- 4-18  107.74823130

 11- 6-15  107.53618669  11- 6-19  107.74823130  12- 5-16  107.53618669  12- 5-20  107.74823130

 13- 3-17  107.78457437  14- 4-18  107.78457437  15- 6-19  107.78457437  16- 5-20  107.78457437

 NUCLEAR CHARGE:                   50
 NUMBER OF PRIMITIVE AOS:         260
 NUMBER OF SYMMETRY AOS:          254
 NUMBER OF CONTRACTIONS:          154   (   43Ag  +   34Au  +   43Bu  +   34Bg  )
 NUMBER OF INNER CORE ORBITALS:     0   (    0Ag  +    0Au  +    0Bu  +    0Bg  )
 NUMBER OF OUTER CORE ORBITALS:     6   (    2Ag  +    1Au  +    2Bu  +    1Bg  )
 NUMBER OF VALENCE ORBITALS:       38   (   11Ag  +    8Au  +   11Bu  +    8Bg  )


 NUCLEAR REPULSION ENERGY  264.52669409

 Eigenvalues of metric

         1 0.366E-02 0.129E-01 0.166E-01 0.236E-01 0.334E-01 0.361E-01 0.404E-01 0.478E-01
         2 0.372E-02 0.191E-01 0.291E-01 0.345E-01 0.362E-01 0.431E-01 0.492E-01 0.825E-01
         3 0.198E-02 0.619E-02 0.165E-01 0.227E-01 0.326E-01 0.364E-01 0.374E-01 0.465E-01
         4 0.550E-02 0.167E-01 0.226E-01 0.274E-01 0.331E-01 0.365E-01 0.487E-01 0.560E-01


 Contracted 2-electron integrals neglected if value below      1.0D-11
 AO integral compression algorithm  1   Integral accuracy      1.0D-11

     100.139 MB (compressed) written to integral file ( 54.7%)


 NUMBER OF SORTED TWO-ELECTRON INTEGRALS:   18164077.     BUFFER LENGTH:  32768
 NUMBER OF SEGMENTS:   2  SEGMENT LENGTH:   15997393      RECORD LENGTH: 524288

 Memory used in sort:      16.55 MW

 SORT1 READ    22889656. AND WROTE    18164047. INTEGRALS IN     53 RECORDS. CPU TIME:     0.56 SEC, REAL TIME:     0.89 SEC
 SORT2 READ    18164047. AND WROTE    18164077. INTEGRALS IN    382 RECORDS. CPU TIME:     0.59 SEC, REAL TIME:     0.74 SEC

 FILE SIZES:   FILE 1:   131.0 MBYTE,  FILE 4:   222.4 MBYTE,   TOTAL:    353.4 MBYTE

 OPERATOR DM      FOR CENTER  0  COORDINATES:    0.000000    0.000000    0.000000


 **********************************************************************************************************************************
 DATASETS  * FILE   NREC   LENGTH (MB)   RECORD NAMES
              1      19      106.14       500      610      700      900      950      970     1000      129      960     1100   
                                          VAR    BASINP    GEOM    SYMINP    ZMAT    AOBASIS   BASIS     P2S    ABASIS      S 
                                         1400     1410     1200     1210     1080     1600     1650     1300     1700   
                                           T        V       H0       H01     AOSYM     SMH    MOLCAS    ERIS     OPER   

 PROGRAMS   *        TOTAL       INT
 CPU TIMES  *        12.38     12.24
 REAL TIME  *        14.14 SEC
 DISK USED  *       337.67 MB
 **********************************************************************************************************************************


 Program * Restricted Hartree-Fock

 Orbital guess generated from atomic densities. Full valence occupancy:   13   9  13   9

 Initial occupancy:   8   5   7   5

 NELEC=   50   SYM=1   MS2= 0   THRE=1.0D-08   THRD=3.2D-06   THRG=3.2D-06  HFMA2=F  DIIS_START=2   DIIS_MAX=10   DIIS_INCORE=F

 Level shifts:    0.00 (CLOSED)    0.00 (OPEN)    0.30 (GAP_MIN)

 ITER           ETOT              DE          GRAD        DDIFF     DIIS  NEXP   TIME(IT)  TIME(TOT)  DIAG
   1     -235.28907368    -235.28907368     0.00D+00     0.16D+00     0     0       0.07      0.13    start
   2     -235.36830836      -0.07923468     0.81D-02     0.17D-01     1     0       0.07      0.20    diag
   3     -235.37740529      -0.00909694     0.30D-02     0.62D-02     2     0       0.07      0.27    diag
   4     -235.37878954      -0.00138425     0.10D-02     0.21D-02     3     0       0.07      0.34    diag
   5     -235.37882409      -0.00003455     0.18D-03     0.36D-03     4     0       0.07      0.41    diag
   6     -235.37882699      -0.00000289     0.48D-04     0.14D-03     5     0       0.07      0.48    diag
   7     -235.37882704      -0.00000005     0.51D-05     0.17D-04     6     0       0.07      0.55    diag
   8     -235.37882704      -0.00000000     0.11D-05     0.35D-05     7     0       0.06      0.61    fixocc
   9     -235.37882704      -0.00000000     0.27D-06     0.93D-06     8     0       0.07      0.68    diag
  10     -235.37882704      -0.00000000     0.57D-07     0.14D-06     0     0       0.08      0.76    diag/orth

 Final occupancy:   8   5   7   5

 !RHF STATE 1.1 Energy               -235.378827043350
  RHF One-electron energy            -840.445817175115
  RHF Two-electron energy             340.540296043587
  RHF Kinetic energy                  235.302787835523
  RHF Nuclear energy                  264.526694088179
  RHF Virial quotient                  -1.000323154726

 !RHF STATE 1.1 Dipole moment           0.00000000     0.00000000     0.00000000
 Dipole moment /Debye                   0.00000000     0.00000000     0.00000000

 Orbital energies:

           1.1          2.1          3.1          4.1          5.1          6.1          7.1          8.1          9.1         10.1
    -11.220661   -11.210970    -1.107667    -0.831178    -0.622090    -0.589130    -0.449900    -0.435789     0.182183     0.243329

           1.2          2.2          3.2          4.2          5.2          6.2          7.2
    -11.211001    -0.943443    -0.580655    -0.526384    -0.499310     0.220087     0.291929

           1.3          2.3          3.3          4.3          5.3          6.3          7.3          8.3          9.3
    -11.220067   -11.210974    -1.012454    -0.750078    -0.625497    -0.543104    -0.476896     0.204255     0.214303

           1.4          2.4          3.4          4.4          5.4          6.4          7.4
    -11.211010    -0.911598    -0.540940    -0.508419    -0.443401     0.274134     0.297877


 HOMO      8.1    -0.435789 =     -11.8584eV
 LUMO      9.1     0.182183 =       4.9574eV
 LUMO-HOMO         0.617972 =      16.8159eV

 Orbitals saved in record  2100.2


 **********************************************************************************************************************************
 DATASETS  * FILE   NREC   LENGTH (MB)   RECORD NAMES
              1      19      106.14       500      610      700      900      950      970     1000      129      960     1100   
                                          VAR    BASINP    GEOM    SYMINP    ZMAT    AOBASIS   BASIS     P2S    ABASIS      S 
                                         1400     1410     1200     1210     1080     1600     1650     1300     1700   
                                           T        V       H0       H01     AOSYM     SMH    MOLCAS    ERIS     OPER   

              2       4        0.81       700     1000      520     2100   
                                         GEOM     BASIS   MCVARS     RHF  

 PROGRAMS   *        TOTAL    HF-SCF       INT
 CPU TIMES  *        13.14      0.76     12.24
 REAL TIME  *        15.13 SEC
 DISK USED  *       337.67 MB
 **********************************************************************************************************************************


 PROGRAM * MP4 (Closed-shell)     Authors: C. Hampel, H.-J. Werner, 1991, M. Deegan, P.J. Knowles, 1992


 Convergence thresholds:  THRVAR = 1.00D-08  THRDEN = 1.00D-06

 MP4(T)     terms to be evaluated (factor= 0.000)


 Number of core orbitals:           6 (   2   1   2   1 )
 Number of closed-shell orbitals:  19 (   6   4   5   4 )
 Number of external orbitals:     129 (  35  29  36  29 )

 Molecular orbitals read from record     2100.2  Type=RHF/CANONICAL  

 Number of N-1 electron functions:              19
 Number of N-2 electron functions:             190
 Number of singly external CSFs:               622
 Number of doubly external CSFs:            752341
 Total number of CSFs:                      752964

 Length of J-op  integral file:               0.00 MB
 Length of K-op  integral file:               0.48 MB

 Memory could be reduced to 13.03 Mwords without degradation in triples

 Integral transformation finished. Total CPU:   0.74 sec, npass=  1  Memory used:   4.14 MW

 Reference energy:                   -235.37882704

                        CORR.ENERGY   TOTAL ENERGY   ENERGY CHANGE
 MP2:                   -0.88122101  -236.26004806    -0.88122101

 SCS-MP2 correlation energy:           -0.88356014   (PS=  1.200000  PT=  0.333333)
 SCS-MP2 total energy:               -236.26238718

 MP3(D):                -0.95665216  -236.33547921    -0.07543115
 MP4(DQ):               -0.96202987  -236.34085692    -0.00537771
 MP4(SDQ):              -0.96630508  -236.34513213    -0.00427521

 Norm of t1 vector:      0.05084010      S-energy:    -0.00427521      T1 diagnostic:  0.00583176


 Total CPU time for triples:     30.90 sec


 RESULTS
 =======

  Reference energy                   -235.378827043349
  MP4(SDQ) singlet pair energy         -0.671281276896
  MP4(SDQ) triplet pair energy         -0.290748597204
  MP4(SDQ) correlation energy          -0.966305084778

  Triples contribution                 -0.027137663286
  Total correlation energy             -0.993442748065

  MP4(SDQ) total energy              -236.345132128128
 !MP4(SDTQ) total energy             -236.372269791414

 Timing summary (sec):

 STEP                 CPU(USER)    SYS     CPU(TOT)    WALL
 Transformation          0.78      0.17      0.95      1.24
 CCSD iterations        16.73      0.10     16.83      3.39
 Triples                30.90      1.78     32.68     32.98

 Program statistics:

 Available memory in ccsd:               805304916
 Min. memory needed in ccsd:               1899251
 Max. memory used in ccsd:                 2578023
 Max. memory used in cckext:               2448268 ( 1 integral passes)



 **********************************************************************************************************************************
 DATASETS  * FILE   NREC   LENGTH (MB)   RECORD NAMES
              1      20      158.39       500      610      700      900      950      970     1000      129      960     1100   
                                          VAR    BASINP    GEOM    SYMINP    ZMAT    AOBASIS   BASIS     P2S    ABASIS      S 
                                         1400     1410     1200     1210     1080     1600     1650     1300     1700     1380   
                                           T        V       H0       H01     AOSYM     SMH    MOLCAS    ERIS     OPER     JKOP   

              2       4        0.81       700     1000      520     2100   
                                         GEOM     BASIS   MCVARS     RHF  

 PROGRAMS   *        TOTAL       MP4    HF-SCF       INT
 CPU TIMES  *        48.12     34.98      0.76     12.24
 REAL TIME  *        52.79 SEC
 DISK USED  *       337.67 MB
 **********************************************************************************************************************************

 Dump information in style XML to xml output                                                                      

 Orbitals will not be exported.

 **********************************************************************************************************************************

 MP4/cc-pVDZ energy=   -236.372269791414

             MP4          HF-SCF
   -236.37226979   -235.37882704
 **********************************************************************************************************************************
 Molpro calculation terminated
