
 Working directory              : /home/jovyan/scratch/molpro.SZmLBfvSFw/
 Global scratch directory       : /home/jovyan/scratch/molpro.SZmLBfvSFw/
 Wavefunction directory         : /home/jovyan/wfu/
 Main file repository           : /home/jovyan/scratch/molpro.SZmLBfvSFw/

 id        : cardiff

 Nodes                nprocs
 jupyter-c-2efrancisan    1
 GA implementation: MPI file
 GA implementation (serial work in mppx): MPI file

 Using customized tuning parameters: mindgm=1; mindgv=20; mindgc=4; mindgr=1; noblas=0; minvec=7
 default implementation of scratch files=df  


 Variables initialized (1031), CPU time= 0.00 sec
 
 
 
 geometry={
            3
     C          0.00000000      0.00000000     -0.02902643
     N          0.00000000      0.00000000      1.12397830
     H          0.00000000      0.00000000     -1.09495187
 }
 basis=cc-pVDZ
 angstrom
 
 
 hf; mp3
 
 
 
 {put,xml;noorbitals,nobasis}
 Commands initialized (841), CPU time= 0.01 sec, 704 directives.
 Default parameters read. Elapsed time= 0.09 sec

 Checking input...
 Passed
1


                                         ***  PROGRAM SYSTEM MOLPRO  ***
                                       Copyright, TTI GmbH Stuttgart, 2015
                                    Version 2023.1 linked Mon Jun  5 13:27:10 2023


 **********************************************************************************************************************************
 LABEL *                                                                                                                                                                 
  (16 PROC) 64 bit serial version                                                        DATE: 02-Aug-23          TIME: 15:36:33  
 **********************************************************************************************************************************

 SHA1:             9738a14712571edd23541b6d7c4f3a3d766f8287
 **********************************************************************************************************************************

 Memory per process:       805 MW
 Total memory per node:   1074 MW
 Total GA space:           268 MW

 GA preallocation disabled
 GA check enabled

 Geometry recognized as XYZ


 Variable memory set to 805.3 MW

 SETTING BASIS          =    CC-PVDZ


 Recomputing integrals since basis changed


 Using spherical harmonics

 Library entry C      S cc-pVDZ              selected for orbital group  1
 Library entry C      P cc-pVDZ              selected for orbital group  1
 Library entry C      D cc-pVDZ              selected for orbital group  1
 Library entry N      S cc-pVDZ              selected for orbital group  2
 Library entry N      P cc-pVDZ              selected for orbital group  2
 Library entry N      D cc-pVDZ              selected for orbital group  2
 Library entry H      S cc-pVDZ              selected for orbital group  3
 Library entry H      P cc-pVDZ              selected for orbital group  3


 PROGRAM * SEWARD (Integral evaluation for generally contracted gaussian basis sets)     Author: Roland Lindh, 1990

 Geometry written to block  1 of record 700


 Point group  C2v 



 ATOMIC COORDINATES

 NR  ATOM    CHARGE       X              Y              Z

   1  C       6.00    0.000000000    0.000000000   -0.054852003
   2  N       7.00    0.000000000    0.000000000    2.124011157
   3  H       1.00    0.000000000    0.000000000   -2.069159154

 Bond lengths in Bohr (Angstrom)

 1-2  2.178863160  1-3  2.014307151
     ( 1.153004730)     ( 1.065925440)

 Bond angles

  2-1-3  180.00000000

 NUCLEAR CHARGE:                   14
 NUMBER OF PRIMITIVE AOS:          61
 NUMBER OF SYMMETRY AOS:           59
 NUMBER OF CONTRACTIONS:           33   (   17A1  +    7B1  +    7B2  +    2A2  )
 NUMBER OF INNER CORE ORBITALS:     0   (    0A1  +    0B1  +    0B2  +    0A2  )
 NUMBER OF OUTER CORE ORBITALS:     2   (    2A1  +    0B1  +    0B2  +    0A2  )
 NUMBER OF VALENCE ORBITALS:        9   (    5A1  +    2B1  +    2B2  +    0A2  )


 NUCLEAR REPULSION ENERGY   23.92418025

 EXTRA SYMMETRY OF AOS IN SYMMETRY 1:   1 1 1 1 1 1 2 1 1 1   1 1 1 2 1 1 1

 Eigenvalues of metric

         1 0.575E-02 0.193E-01 0.229E-01 0.480E-01 0.834E-01 0.117E+00 0.143E+00 0.804E+00
         2 0.125E+00 0.188E+00 0.239E+00 0.597E+00 0.117E+01 0.175E+01 0.293E+01
         3 0.125E+00 0.188E+00 0.239E+00 0.597E+00 0.117E+01 0.175E+01 0.293E+01
         4 0.804E+00 0.120E+01


 Contracted 2-electron integrals neglected if value below      1.0D-11
 AO integral compression algorithm  1   Integral accuracy      1.0D-11

     0.524 MB (compressed) written to integral file ( 74.9%)


 NUMBER OF SORTED TWO-ELECTRON INTEGRALS:      47534.     BUFFER LENGTH:  32768
 NUMBER OF SEGMENTS:   1  SEGMENT LENGTH:      47534      RECORD LENGTH: 524288

 Memory used in sort:       0.60 MW

 SORT1 READ       57809. AND WROTE       41798. INTEGRALS IN      1 RECORDS. CPU TIME:     0.00 SEC, REAL TIME:     0.03 SEC
 SORT2 READ       41798. AND WROTE       47534. INTEGRALS IN      2 RECORDS. CPU TIME:     0.01 SEC, REAL TIME:     0.01 SEC

 FILE SIZES:   FILE 1:    30.6 MBYTE,  FILE 4:     4.3 MBYTE,   TOTAL:     34.8 MBYTE

 OPERATOR DM      FOR CENTER  0  COORDINATES:    0.000000    0.000000    0.000000


 **********************************************************************************************************************************
 DATASETS  * FILE   NREC   LENGTH (MB)   RECORD NAMES
              1      19       28.87       500      610      700      900      950      970     1000      129      960     1100   
                                          VAR    BASINP    GEOM    SYMINP    ZMAT    AOBASIS   BASIS     P2S    ABASIS      S 
                                         1400     1410     1200     1210     1080     1600     1650     1300     1700   
                                           T        V       H0       H01     AOSYM     SMH    MOLCAS    ERIS     OPER   

 PROGRAMS   *        TOTAL       INT
 CPU TIMES  *         0.54      0.40
 REAL TIME  *         1.88 SEC
 DISK USED  *        33.56 MB
 **********************************************************************************************************************************


 Program * Restricted Hartree-Fock

 Orbital guess generated from atomic densities. Full valence occupancy:    7   2   2   0

 Initial occupancy:   5   1   1   0

 NELEC=   14   SYM=1   MS2= 0   THRE=1.0D-08   THRD=3.2D-06   THRG=3.2D-06  HFMA2=F  DIIS_START=2   DIIS_MAX=10   DIIS_INCORE=F

 Level shifts:    0.00 (CLOSED)    0.00 (OPEN)    0.30 (GAP_MIN)

 ITER           ETOT              DE          GRAD        DDIFF     DIIS  NEXP   TIME(IT)  TIME(TOT)  DIAG
   1      -92.85917839     -92.85917839     0.00D+00     0.32D+00     0     0       0.00      0.00    start
   2      -92.86837601      -0.00919762     0.17D-01     0.43D-01     1     0       0.00      0.00    diag
   3      -92.88305187      -0.01467586     0.16D-01     0.21D-01     2     0       0.00      0.00    diag
   4      -92.88326106      -0.00020919     0.12D-02     0.34D-02     3     0       0.00      0.00    diag
   5      -92.88327164      -0.00001057     0.26D-03     0.72D-03     4     0       0.00      0.00    diag
   6      -92.88327238      -0.00000074     0.75D-04     0.20D-03     5     0       0.00      0.00    diag
   7      -92.88327244      -0.00000006     0.26D-04     0.57D-04     6     0       0.01      0.01    diag
   8      -92.88327244      -0.00000000     0.38D-05     0.10D-04     7     0       0.00      0.01    fixocc
   9      -92.88327244      -0.00000000     0.34D-06     0.10D-05     8     0       0.00      0.01    diag
  10      -92.88327244      -0.00000000     0.35D-07     0.97D-07     0     0       0.00      0.01    diag/orth

 Final occupancy:   5   1   1   0

 !RHF STATE 1.1 Energy                -92.883272437200
  RHF One-electron energy            -172.600857858223
  RHF Two-electron energy              55.793405172155
  RHF Kinetic energy                   92.672763715534
  RHF Nuclear energy                   23.924180248868
  RHF Virial quotient                  -1.002271527396

 !RHF STATE 1.1 Dipole moment           0.00000000     0.00000000    -1.23588263
 Dipole moment /Debye                   0.00000000     0.00000000    -3.14130031

 Orbital energies:

           1.1          2.1          3.1          4.1          5.1          6.1          7.1
    -15.603503   -11.298116    -1.236080    -0.807805    -0.577400     0.181418     0.343156

           1.2          2.2          3.2
     -0.492060     0.189285     0.671341

           1.3          2.3          3.3
     -0.492060     0.189285     0.671341

           1.4          2.4
      1.330654     2.187626


 HOMO      1.3    -0.492060 =     -13.3896eV
 LUMO      6.1     0.181418 =       4.9366eV
 LUMO-HOMO         0.673478 =      18.3263eV

 Orbitals saved in record  2100.2


 **********************************************************************************************************************************
 DATASETS  * FILE   NREC   LENGTH (MB)   RECORD NAMES
              1      19       28.87       500      610      700      900      950      970     1000      129      960     1100   
                                          VAR    BASINP    GEOM    SYMINP    ZMAT    AOBASIS   BASIS     P2S    ABASIS      S 
                                         1400     1410     1200     1210     1080     1600     1650     1300     1700   
                                           T        V       H0       H01     AOSYM     SMH    MOLCAS    ERIS     OPER   

              2       4        0.42       700     1000      520     2100   
                                         GEOM     BASIS   MCVARS     RHF  

 PROGRAMS   *        TOTAL    HF-SCF       INT
 CPU TIMES  *         0.55      0.01      0.40
 REAL TIME  *         1.94 SEC
 DISK USED  *        33.56 MB
 **********************************************************************************************************************************


 PROGRAM * MP3 (Closed-shell)     Authors: C. Hampel, H.-J. Werner, 1991, M. Deegan, P.J. Knowles, 1992


 Convergence thresholds:  THRVAR = 1.00D-08  THRDEN = 1.00D-06

 Number of core orbitals:           2 (   2   0   0   0 )
 Number of closed-shell orbitals:   5 (   3   1   1   0 )
 Number of external orbitals:      26 (  12   6   6   2 )

 Molecular orbitals read from record     2100.2  Type=RHF/CANONICAL  

 Number of N-1 electron functions:               5
 Number of N-2 electron functions:              15
 Number of singly external CSFs:                48
 Number of doubly external CSFs:              2403
 Total number of CSFs:                        2452

 Length of J-op  integral file:               0.00 MB
 Length of K-op  integral file:               0.09 MB

 Integral transformation finished. Total CPU:   0.00 sec, npass=  1  Memory used:   0.07 MW

 Reference energy:                    -92.88327244

                        CORR.ENERGY   TOTAL ENERGY   ENERGY CHANGE
 MP2:                   -0.28411858   -93.16739102    -0.28411858

 SCS-MP2 correlation energy:           -0.27791090   (PS=  1.200000  PT=  0.333333)
 SCS-MP2 total energy:                -93.16118334

 MP3(D):                -0.28645362   -93.16972606    -0.00233504



 RESULTS
 =======

  Reference energy                    -92.883272437200
  MP3 singlet pair energy              -0.191389697768
  MP3 triplet pair energy              -0.095063926087
  MP3 correlation energy               -0.286453623856

 !MP3 total energy                    -93.169726061055

 Timing summary (sec):

 STEP                 CPU(USER)    SYS     CPU(TOT)    WALL
 CCSD iterations         0.88      0.00      0.88      0.04

 Program statistics:

 Available memory in ccsd:               805306263
 Min. memory needed in ccsd:                 12634
 Max. memory used in ccsd:                   13865
 Max. memory used in cckext:                 47268 ( 1 integral passes)



 **********************************************************************************************************************************
 DATASETS  * FILE   NREC   LENGTH (MB)   RECORD NAMES
              1      20       28.94       500      610      700      900      950      970     1000      129      960     1100   
                                          VAR    BASINP    GEOM    SYMINP    ZMAT    AOBASIS   BASIS     P2S    ABASIS      S 
                                         1400     1410     1200     1210     1080     1600     1650     1300     1700     1380   
                                           T        V       H0       H01     AOSYM     SMH    MOLCAS    ERIS     OPER     JKOP   

              2       4        0.42       700     1000      520     2100   
                                         GEOM     BASIS   MCVARS     RHF  

 PROGRAMS   *        TOTAL       MP3    HF-SCF       INT
 CPU TIMES  *         0.61      0.06      0.01      0.40
 REAL TIME  *         2.15 SEC
 DISK USED  *        33.56 MB
 **********************************************************************************************************************************

 Dump information in style XML to xml output                                                                      

 Orbitals will not be exported.

 **********************************************************************************************************************************

 MP3/cc-pVDZ energy=    -93.169726061055

             MP3          HF-SCF
    -93.16972606    -92.88327244
 **********************************************************************************************************************************
 Molpro calculation terminated
