
 Working directory              : /home/jovyan/scratch/molpro.uaYjXdTSHI/
 Global scratch directory       : /home/jovyan/scratch/molpro.uaYjXdTSHI/
 Wavefunction directory         : /home/jovyan/wfu/
 Main file repository           : /home/jovyan/scratch/molpro.uaYjXdTSHI/

 id        : cardiff

 Nodes                nprocs
 jupyter-c-2efrancisan    1
 GA implementation: MPI file
 GA implementation (serial work in mppx): MPI file

 Using customized tuning parameters: mindgm=1; mindgv=20; mindgc=4; mindgr=1; noblas=0; minvec=7
 default implementation of scratch files=df  


 Variables initialized (1031), CPU time= 0.00 sec
 
 
 
 geometry={
 14
    C   0.62527800830666      2.89809627957375     -0.03936045477419
    C   -0.34255388276270      1.73745370003310     -0.03150100176433
    N   0.36138843311159      0.47998433732143      0.01403975045456
    C   -0.22542645347882     -0.72812870820658      0.09515084552755
    N   -1.56562722239652     -0.73828988669266     -0.07257090139012
    S   0.64293020269652     -2.11955820431433      0.35396039167116
    H   -2.11587316489113      0.09765190100243     -0.03875317825241
    H   -2.02216029547534     -1.61654192112677      0.07076902579688
    H   1.34388428549199      0.47744786420014      0.21511755062804
    H   -0.96428971121995      1.77250469141176     -0.92748736392476
    H   -1.00987152277285      1.82684418928150      0.83109160294360
    H   1.29351690735313      2.84225750698511     -0.89453694539721
    H   0.07941403827619      3.83516192614587     -0.09217618418552
    H   1.22905937776120      2.90822932438525      0.86522986266675
 }
 basis=cc-pVTZ
 angstrom
 
 
 hf; ccsd
 
 
 
 {put,xml;noorbitals,nobasis}
 Commands initialized (841), CPU time= 0.01 sec, 704 directives.
 Default parameters read. Elapsed time= 0.09 sec

 Checking input...
 Passed
1


                                         ***  PROGRAM SYSTEM MOLPRO  ***
                                       Copyright, TTI GmbH Stuttgart, 2015
                                    Version 2023.1 linked Mon Jun  5 13:27:10 2023


 **********************************************************************************************************************************
 LABEL *                                                                                                                                                                 
  (16 PROC) 64 bit serial version                                                        DATE: 04-Aug-23          TIME: 06:14:39  
 **********************************************************************************************************************************

 SHA1:             9738a14712571edd23541b6d7c4f3a3d766f8287
 **********************************************************************************************************************************

 Memory per process:       805 MW
 Total memory per node:   1074 MW
 Total GA space:           268 MW

 GA preallocation disabled
 GA check enabled

 Geometry recognized as XYZ


 Variable memory set to 805.3 MW

 SETTING BASIS          =    CC-PVTZ


 Recomputing integrals since basis changed


 Using spherical harmonics

 Library entry C      S cc-pVTZ              selected for orbital group  1
 Library entry C      P cc-pVTZ              selected for orbital group  1
 Library entry C      D cc-pVTZ              selected for orbital group  1
 Library entry C      F cc-pVTZ              selected for orbital group  1
 Library entry N      S cc-pVTZ              selected for orbital group  2
 Library entry N      P cc-pVTZ              selected for orbital group  2
 Library entry N      D cc-pVTZ              selected for orbital group  2
 Library entry N      F cc-pVTZ              selected for orbital group  2
 Library entry S      S cc-pVTZ              selected for orbital group  5
 Library entry S      P cc-pVTZ              selected for orbital group  5
 Library entry S      D cc-pVTZ              selected for orbital group  5
 Library entry S      F cc-pVTZ              selected for orbital group  5
 Library entry H      S cc-pVTZ              selected for orbital group  6
 Library entry H      P cc-pVTZ              selected for orbital group  6
 Library entry H      D cc-pVTZ              selected for orbital group  6


 PROGRAM * SEWARD (Integral evaluation for generally contracted gaussian basis sets)     Author: Roland Lindh, 1990

 Geometry written to block  1 of record 700


 Point group  C1  



 ATOMIC COORDINATES

 NR  ATOM    CHARGE       X              Y              Z

   1  C       6.00    1.181604187    5.476608251   -0.074380480
   2  C       6.00   -0.647333021    3.283311647   -0.059528266
   3  N       7.00    0.682925163    0.907038942    0.026531283
   4  C       6.00   -0.425994258   -1.375963842    0.179809039
   5  N       7.00   -2.958606664   -1.395165686   -0.137139128
   6  S      16.00    1.214962000   -4.005384511    0.668888199
   7  H       1.00   -3.998420796    0.184535348   -0.073232893
   8  H       1.00   -3.821329139   -3.054821500    0.133734077
   9  H       1.00    2.539573243    0.902245702    0.406513255
  10  H       1.00   -1.822243459    3.349548421   -1.752697102
  11  H       1.00   -1.908380599    3.452235190    1.570535514
  12  H       1.00    2.444392692    5.371088264   -1.690429835
  13  H       1.00    0.150070783    7.247405684   -0.174187743
  14  H       1.00    2.322585615    5.495756931    1.635047475

 Bond lengths in Bohr (Angstrom)

  1- 2  2.855832960   1-12  2.053627229   1-13  2.051766605   1-14  2.055322170   2- 3  2.724640353
       ( 1.511241721)       ( 1.086732729)       ( 1.085748130)       ( 1.087629653)       ( 1.441817583)

  2-10  2.061946302   2-11  2.067821096   3- 4  2.542695039   3- 9  1.895138878   4- 5  2.552440097
       ( 1.091134993)       ( 1.094243800)       ( 1.345536269)       ( 1.002864306)       ( 1.350693131)

 4-6  3.137800014  5-7  1.892287715  5-8  1.890005233
     ( 1.660452260)     ( 1.001355535)     ( 1.000147698)

 Bond angles

  1- 2- 3  110.93444824   1- 2-10  109.63183291   1- 2-11  109.38517980   2- 1-12  111.00380871

  2- 1-13  109.94474000   2- 1-14  110.99891742   2- 3- 4  124.89286902   2- 3- 9  119.13409952

  3- 2-10  109.39937660   3- 2-11  110.12645060   3- 4- 5  115.59461765   3- 4- 6  122.25700367

  4-3-9  114.38741641   4-5-7  122.32754425   4-5-8  116.21426822   5-4-6  122.13744593

  7- 5- 8  118.51552963  10- 2-11  107.28927974  12- 1-13  108.37366584  12- 1-14  108.27715888

 13- 1-14  108.15046511

 NUCLEAR CHARGE:                   56
 NUMBER OF PRIMITIVE AOS:         435
 NUMBER OF SYMMETRY AOS:          397
 NUMBER OF CONTRACTIONS:          296   (  296A   )
 NUMBER OF INNER CORE ORBITALS:     1   (    1A   )
 NUMBER OF OUTER CORE ORBITALS:     9   (    9A   )
 NUMBER OF VALENCE ORBITALS:       32   (   32A   )


 NUCLEAR REPULSION ENERGY  293.41225290


 Eigenvalues of metric

         1 0.610E-03 0.692E-03 0.875E-03 0.939E-03 0.979E-03 0.126E-02 0.137E-02 0.146E-02


 Contracted 2-electron integrals neglected if value below      1.0D-11
 AO integral compression algorithm  1   Integral accuracy      1.0D-11

     2932.343 MB (compressed) written to integral file ( 37.1%)


 NUMBER OF SORTED TWO-ELECTRON INTEGRALS:  966086946.     BUFFER LENGTH:  32768
 NUMBER OF SEGMENTS:  61  SEGMENT LENGTH:   15999984      RECORD LENGTH: 262144

 Memory used in sort:      16.29 MW

 SORT1 READ   988937047. AND WROTE   766008916. INTEGRALS IN   4414 RECORDS. CPU TIME:    12.30 SEC, REAL TIME:    19.57 SEC
 SORT2 READ   766008916. AND WROTE   966086946. INTEGRALS IN  11186 RECORDS. CPU TIME:    13.30 SEC, REAL TIME:    20.59 SEC

 FILE SIZES:   FILE 1:  2965.8 MBYTE,  FILE 4:  9256.9 MBYTE,   TOTAL:  12222.7 MBYTE

 OPERATOR DM      FOR CENTER  0  COORDINATES:    0.000000    0.000000    0.000000


 **********************************************************************************************************************************
 DATASETS  * FILE   NREC   LENGTH (MB)   RECORD NAMES
              1      19     2601.60       500      610      700      900      950      970     1000      129      960     1100   
                                          VAR    BASINP    GEOM    SYMINP    ZMAT    AOBASIS   BASIS     P2S    ABASIS      S 
                                         1400     1410     1200     1210     1080     1600     1650     1300     1700   
                                           T        V       H0       H01     AOSYM     SMH    MOLCAS    ERIS     OPER   

 PROGRAMS   *        TOTAL       INT
 CPU TIMES  *        77.36     77.22
 REAL TIME  *        96.72 SEC
 DISK USED  *        11.38 GB
 **********************************************************************************************************************************


 Program * Restricted Hartree-Fock

 Orbital guess generated from atomic densities. Full valence occupancy:   42

 Initial occupancy:  28

 NELEC=   56   SYM=1   MS2= 0   THRE=1.0D-08   THRD=3.2D-06   THRG=3.2D-06  HFMA2=F  DIIS_START=2   DIIS_MAX=10   DIIS_INCORE=F

 Level shifts:    0.00 (CLOSED)    0.00 (OPEN)    0.30 (GAP_MIN)

 ITER           ETOT              DE          GRAD        DDIFF     DIIS  NEXP   TIME(IT)  TIME(TOT)  DIAG
   1     -624.70657131    -624.70657131     0.00D+00     0.48D-01     0     0      11.14     21.62    start
   2     -624.78667951      -0.08010820     0.31D-02     0.54D-02     1     0      11.19     32.81    diag
   3     -624.80319330      -0.01651379     0.14D-02     0.16D-02     2     0      11.50     44.31    diag
   4     -624.80587915      -0.00268585     0.51D-03     0.59D-03     3     0      11.12     55.43    diag
   5     -624.80611769      -0.00023854     0.12D-03     0.19D-03     4     0      11.04     66.47    diag
   6     -624.80615476      -0.00003707     0.41D-04     0.91D-04     5     0      11.07     77.54    diag
   7     -624.80615811      -0.00000335     0.12D-04     0.28D-04     6     0      11.03     88.57    diag
   8     -624.80615839      -0.00000028     0.38D-05     0.70D-05     7     0      11.08     99.65    fixocc
   9     -624.80615842      -0.00000004     0.12D-05     0.25D-05     8     0      10.95    110.60    diag
  10     -624.80615843      -0.00000001     0.50D-06     0.10D-05     9     0      10.99    121.59    diag/orth
  11     -624.80615843      -0.00000000     0.22D-06     0.39D-06     0     0      11.05    132.64    diag

 Final occupancy:  28

 !RHF STATE 1.1 Energy               -624.806158429973
  RHF One-electron energy           -1439.931948809551
  RHF Two-electron energy             521.713537482700
  RHF Kinetic energy                  624.663760423330
  RHF Nuclear energy                  293.412252896878
  RHF Virial quotient                  -1.000227959449

 !RHF STATE 1.1 Dipole moment          -1.16030659     2.19230833    -0.09124881
 Dipole moment /Debye                  -2.94920519     5.57229196    -0.23193134

 Orbital energies:

           1.1          2.1          3.1          4.1          5.1          6.1          7.1          8.1          9.1         10.1
    -91.870899   -15.595246   -15.594883   -11.366022   -11.288449   -11.242445    -8.876241    -6.557914    -6.555792    -6.555312

          11.1         12.1         13.1         14.1         15.1         16.1         17.1         18.1         19.1         20.1
     -1.317589    -1.209881    -1.058936    -0.963799    -0.871242    -0.826957    -0.746393    -0.685158    -0.673397    -0.647172

          21.1         22.1         23.1         24.1         25.1         26.1         27.1         28.1         29.1         30.1
     -0.574931    -0.570902    -0.542880    -0.520146    -0.494155    -0.420830    -0.313002    -0.311837     0.117159     0.139108


 HOMO     28.1    -0.311837 =      -8.4855eV
 LUMO     29.1     0.117159 =       3.1881eV
 LUMO-HOMO         0.428996 =      11.6736eV

 Orbitals saved in record  2100.2


 **********************************************************************************************************************************
 DATASETS  * FILE   NREC   LENGTH (MB)   RECORD NAMES
              1      19     2601.60       500      610      700      900      950      970     1000      129      960     1100   
                                          VAR    BASINP    GEOM    SYMINP    ZMAT    AOBASIS   BASIS     P2S    ABASIS      S 
                                         1400     1410     1200     1210     1080     1600     1650     1300     1700   
                                           T        V       H0       H01     AOSYM     SMH    MOLCAS    ERIS     OPER   

              2       4        1.98       700     1000      520     2100   
                                         GEOM     BASIS   MCVARS     RHF  

 PROGRAMS   *        TOTAL    HF-SCF       INT
 CPU TIMES  *       210.02    132.67     77.22
 REAL TIME  *       247.14 SEC
 DISK USED  *        11.38 GB
 **********************************************************************************************************************************


 PROGRAM * CCSD (Closed-shell coupled cluster)     Authors: C. Hampel, H.-J. Werner, 1991, M. Deegan, P.J. Knowles, 1992


 Convergence thresholds:  THRVAR = 1.00D-08  THRDEN = 1.00D-06

 Number of core orbitals:          10 (  10 )
 Number of closed-shell orbitals:  18 (  18 )
 Number of external orbitals:     268 ( 268 )

 Molecular orbitals read from record     2100.2  Type=RHF/CANONICAL  

 Number of N-1 electron functions:              18
 Number of N-2 electron functions:             171
 Number of singly external CSFs:              4824
 Number of doubly external CSFs:          11637900
 Total number of CSFs:                    11642725

 Length of J-op  integral file:               0.00 MB
 Length of K-op  integral file:               6.08 MB
 Length of 3-ext integral record:             0.00 MB

 Integral transformation finished. Total CPU:  64.29 sec, npass=  1  Memory used: 273.49 MW

 Reference energy:                   -624.80615843

 MP2 singlet pair energy:              -0.69765694
 MP2 triplet pair energy:              -0.39909149
 MP2 correlation energy:               -1.09674843
 MP2 total energy:                   -625.90290686

 SCS-MP2 correlation energy:           -1.08551192   (PS=  1.200000  PT=  0.333333)
 SCS-MP2 total energy:               -625.89167035

 ITER.      SQ.NORM     CORR.ENERGY   TOTAL ENERGY   ENERGY CHANGE        DEN1      VAR(S)    VAR(P)  DIIS     TIME  TIME/IT
   1      1.36206863    -1.13964646  -625.94580489    -0.04289803    -0.01411070  0.58D-02  0.59D-02  1  1   437.08   164.26
   2      1.38639543    -1.14274277  -625.94890120    -0.00309631    -0.02568161  0.14D-03  0.78D-03  2  2   600.66   165.98
   3      1.39563851    -1.14292935  -625.94908778    -0.00018659    -0.00477281  0.13D-03  0.39D-04  3  3   763.80   166.17
   4      1.39905958    -1.14289984  -625.94905827     0.00002952    -0.00118047  0.19D-04  0.67D-05  4  4   924.72   165.68
   5      1.40062841    -1.14290717  -625.94906560    -0.00000734    -0.00030100  0.45D-05  0.75D-06  5  5  1081.94   164.66
   6      1.40117166    -1.14287835  -625.94903678     0.00002882    -0.00006087  0.56D-06  0.18D-06  6  6  1237.91   163.85
   7      1.40134407    -1.14287000  -625.94902843     0.00000835    -0.00001276  0.17D-06  0.30D-07  6  2  1395.55   163.45
   8      1.40139004    -1.14286880  -625.94902723     0.00000120    -0.00000311  0.40D-07  0.88D-08  6  1  1552.53   163.17
   9      1.40140796    -1.14286882  -625.94902725    -0.00000002     0.00000320  0.66D-08  0.20D-08  6  4  1712.90   163.25
  10      1.40141326    -1.14286931  -625.94902774    -0.00000049    -0.00000126  0.86D-09  0.26D-09  6  3  1875.41   163.66

 Norm of t1 vector:      0.11548968      S-energy:     0.00000075      T1 diagnostic:  0.01361059
                                                                       D1 diagnostic:  0.06309634
                                                                       D2 diagnostic:  0.16627957 (internal)


 RESULTS
 =======

  Reference energy                   -624.806158429971
  CCSD singlet pair energy             -0.777652557913
  CCSD triplet pair energy             -0.365217505609
  CCSD correlation energy              -1.142869310876

 !CCSD total energy                  -625.949027740847

 Timing summary (sec):

 STEP                 CPU(USER)    SYS     CPU(TOT)    WALL
 Transformation         65.40      4.31     69.71     71.08
 CCSD iterations      1811.43     21.09   1832.52   1638.18

 Program statistics:

 Available memory in ccsd:               805305044
 Min. memory needed in ccsd:              28020921
 Max. memory used in ccsd:                38730561
 Max. memory used in cckext:              30882144 (10 integral passes)



 **********************************************************************************************************************************
 DATASETS  * FILE   NREC   LENGTH (MB)   RECORD NAMES
              1      20     4101.23       500      610      700      900      950      970     1000      129      960     1100   
                                          VAR    BASINP    GEOM    SYMINP    ZMAT    AOBASIS   BASIS     P2S    ABASIS      S 
                                         1400     1410     1200     1210     1080     1600     1650     1300     1700     1380   
                                           T        V       H0       H01     AOSYM     SMH    MOLCAS    ERIS     OPER     JKOP   

              2       4        1.98       700     1000      520     2100   
                                         GEOM     BASIS   MCVARS     RHF  

 PROGRAMS   *        TOTAL      CCSD    HF-SCF       INT
 CPU TIMES  *      1876.65   1666.63    132.67     77.22
 REAL TIME  *      1956.50 SEC
 DISK USED  *        11.38 GB
 **********************************************************************************************************************************

 Dump information in style XML to xml output                                                                      

 Orbitals will not be exported.

 **********************************************************************************************************************************

 CCSD/cc-pVTZ energy=   -625.949027740847

            CCSD          HF-SCF
   -625.94902774   -624.80615843
 **********************************************************************************************************************************
 Molpro calculation terminated
