
 Working directory              : /home/jovyan/scratch/molpro.6A4hEXFONT/
 Global scratch directory       : /home/jovyan/scratch/molpro.6A4hEXFONT/
 Wavefunction directory         : /home/jovyan/wfu/
 Main file repository           : /home/jovyan/scratch/molpro.6A4hEXFONT/

 id        : cardiff

 Nodes                nprocs
 jupyter-c-2efrancisan    1
 GA implementation: MPI file
 GA implementation (serial work in mppx): MPI file

 Using customized tuning parameters: mindgm=1; mindgv=20; mindgc=4; mindgr=1; noblas=0; minvec=7
 default implementation of scratch files=df  


 Variables initialized (1031), CPU time= 0.01 sec
 
 
 
 geometry={
 3
    S   0.00001473056183      0.00000027536705      0.00000000000000
    H   1.31722300858301      0.00000454820039      0.00000000000000
    H   -1.31724922264958     -0.00000400609083      0.00000000000000
 }
 basis=cc-pVTZ
 angstrom
 
 
 hf; mp3
 
 
 
 {put,xml;noorbitals,nobasis}
 Commands initialized (841), CPU time= 0.01 sec, 704 directives.
 Default parameters read. Elapsed time= 0.09 sec

 Checking input...
 Passed
1


                                         ***  PROGRAM SYSTEM MOLPRO  ***
                                       Copyright, TTI GmbH Stuttgart, 2015
                                    Version 2023.1 linked Mon Jun  5 13:27:10 2023


 **********************************************************************************************************************************
 LABEL *                                                                                                                                                                 
  (16 PROC) 64 bit serial version                                                        DATE: 02-Aug-23          TIME: 15:29:46  
 **********************************************************************************************************************************

 SHA1:             9738a14712571edd23541b6d7c4f3a3d766f8287
 **********************************************************************************************************************************

 Memory per process:       805 MW
 Total memory per node:   1074 MW
 Total GA space:           268 MW

 GA preallocation disabled
 GA check enabled

 Geometry recognized as XYZ


 Variable memory set to 805.3 MW

 SETTING BASIS          =    CC-PVTZ


 Recomputing integrals since basis changed


 Using spherical harmonics

 Library entry S      S cc-pVTZ              selected for orbital group  1
 Library entry S      P cc-pVTZ              selected for orbital group  1
 Library entry S      D cc-pVTZ              selected for orbital group  1
 Library entry S      F cc-pVTZ              selected for orbital group  1
 Library entry H      S cc-pVTZ              selected for orbital group  2
 Library entry H      P cc-pVTZ              selected for orbital group  2
 Library entry H      D cc-pVTZ              selected for orbital group  2


 PROGRAM * SEWARD (Integral evaluation for generally contracted gaussian basis sets)     Author: Roland Lindh, 1990

 Geometry written to block  1 of record 700


 Point group  Cs  



 ATOMIC COORDINATES

 NR  ATOM    CHARGE       X              Y              Z

   1  S      16.00    0.000027837    0.000000520    0.000000000
   2  H       1.00    2.489190731    0.000008595    0.000000000
   3  H       1.00   -2.489240269   -0.000007570    0.000000000

 Bond lengths in Bohr (Angstrom)

 1-2  2.489162895  1-3  2.489268105
     ( 1.317208278)     ( 1.317263953)

 Bond angles

  2-1-3  180.00000000

 NUCLEAR CHARGE:                   18
 NUMBER OF PRIMITIVE AOS:          98
 NUMBER OF SYMMETRY AOS:           91
 NUMBER OF CONTRACTIONS:           62   (   43A'  +   19A"  )
 NUMBER OF INNER CORE ORBITALS:     1   (    1A'  +    0A"  )
 NUMBER OF OUTER CORE ORBITALS:     4   (    3A'  +    1A"  )
 NUMBER OF VALENCE ORBITALS:        6   (    5A'  +    1A"  )


 NUCLEAR REPULSION ENERGY   13.05632237


 Eigenvalues of metric

         1 0.108E-02 0.178E-02 0.596E-02 0.818E-02 0.198E-01 0.210E-01 0.253E-01 0.808E-01
         2 0.253E-01 0.112E+00 0.157E+00 0.381E+00 0.395E+00 0.439E+00 0.487E+00 0.653E+00


 Contracted 2-electron integrals neglected if value below      1.0D-11
 AO integral compression algorithm  1   Integral accuracy      1.0D-11

     4.194 MB (compressed) written to integral file ( 44.2%)


 NUMBER OF SORTED TWO-ELECTRON INTEGRALS:    1005296.     BUFFER LENGTH:  32768
 NUMBER OF SEGMENTS:   1  SEGMENT LENGTH:    1005296      RECORD LENGTH: 524288

 Memory used in sort:       1.56 MW

 SORT1 READ     1227267. AND WROTE      888513. INTEGRALS IN      3 RECORDS. CPU TIME:     0.02 SEC, REAL TIME:     0.04 SEC
 SORT2 READ      888513. AND WROTE     1005296. INTEGRALS IN     16 RECORDS. CPU TIME:     0.05 SEC, REAL TIME:     0.06 SEC

 FILE SIZES:   FILE 1:    34.3 MBYTE,  FILE 4:    12.6 MBYTE,   TOTAL:     47.0 MBYTE

 OPERATOR DM      FOR CENTER  0  COORDINATES:    0.000000    0.000000    0.000000


 **********************************************************************************************************************************
 DATASETS  * FILE   NREC   LENGTH (MB)   RECORD NAMES
              1      19       31.84       500      610      700      900      950      970     1000      129      960     1100   
                                          VAR    BASINP    GEOM    SYMINP    ZMAT    AOBASIS   BASIS     P2S    ABASIS      S 
                                         1400     1410     1200     1210     1080     1600     1650     1300     1700   
                                           T        V       H0       H01     AOSYM     SMH    MOLCAS    ERIS     OPER   

 PROGRAMS   *        TOTAL       INT
 CPU TIMES  *         0.76      0.63
 REAL TIME  *         2.88 SEC
 DISK USED  *        45.16 MB
 **********************************************************************************************************************************


 Program * Restricted Hartree-Fock

 Orbital guess generated from atomic densities. Full valence occupancy:    9   2

 Initial occupancy:   7   2

 NELEC=   18   SYM=1   MS2= 0   THRE=1.0D-08   THRD=3.2D-06   THRG=3.2D-06  HFMA2=F  DIIS_START=2   DIIS_MAX=10   DIIS_INCORE=F

 Level shifts:    0.00 (CLOSED)    0.00 (OPEN)    0.30 (GAP_MIN)

 ITER           ETOT              DE          GRAD        DDIFF     DIIS  NEXP   TIME(IT)  TIME(TOT)  DIAG
   1     -398.57378045    -398.57378045     0.00D+00     0.17D+00     0     0       0.01      0.02    start
   2     -398.58527419      -0.01149374     0.57D-02     0.14D-01     1     0       0.01      0.03    diag
   3     -398.58570548      -0.00043129     0.13D-02     0.14D-02     2     0       0.01      0.04    diag
   4     -398.58573226      -0.00002678     0.29D-03     0.52D-03     3     0       0.01      0.05    diag
   5     -398.58573379      -0.00000153     0.47D-04     0.14D-03     4     0       0.01      0.06    diag
   6     -398.58573383      -0.00000004     0.75D-05     0.24D-04     5     0       0.01      0.07    diag
   7     -398.58573383      -0.00000000     0.93D-06     0.34D-05     6     0       0.01      0.08    diag
   8     -398.58573383      -0.00000000     0.11D-06     0.26D-06     7     0       0.02      0.10    fixocc
   9     -398.58573383       0.00000000     0.97D-08     0.22D-07     0     0       0.00      0.10    diag

 Final occupancy:   7   2

 !RHF STATE 1.1 Energy               -398.585733830598
  RHF One-electron energy            -576.952400532677
  RHF Two-electron energy             165.310344332894
  RHF Kinetic energy                  398.625647596308
  RHF Nuclear energy                   13.056322369185
  RHF Virial quotient                  -0.999899871556

 !RHF STATE 1.1 Dipole moment          -0.00006120    -0.00000001     0.00000000
 Dipole moment /Debye                  -0.00015556    -0.00000002     0.00000000

 Orbital energies:

           1.1          2.1          3.1          4.1          5.1          6.1          7.1          8.1          9.1
    -91.937524    -8.946165    -6.630226    -6.629532    -0.974755    -0.670917    -0.373602     0.031323     0.180238

           1.2          2.2          3.2          4.2
     -6.629532    -0.373602     0.444776     0.459439


 HOMO      2.2    -0.373602 =     -10.1662eV
 LUMO      8.1     0.031323 =       0.8523eV
 LUMO-HOMO         0.404925 =      11.0186eV

 Orbitals saved in record  2100.2


 **********************************************************************************************************************************
 DATASETS  * FILE   NREC   LENGTH (MB)   RECORD NAMES
              1      19       31.84       500      610      700      900      950      970     1000      129      960     1100   
                                          VAR    BASINP    GEOM    SYMINP    ZMAT    AOBASIS   BASIS     P2S    ABASIS      S 
                                         1400     1410     1200     1210     1080     1600     1650     1300     1700   
                                           T        V       H0       H01     AOSYM     SMH    MOLCAS    ERIS     OPER   

              2       4        0.45       700     1000      520     2100   
                                         GEOM     BASIS   MCVARS     RHF  

 PROGRAMS   *        TOTAL    HF-SCF       INT
 CPU TIMES  *         0.87      0.11      0.63
 REAL TIME  *         3.02 SEC
 DISK USED  *        45.16 MB
 **********************************************************************************************************************************


 PROGRAM * MP3 (Closed-shell)     Authors: C. Hampel, H.-J. Werner, 1991, M. Deegan, P.J. Knowles, 1992


 Convergence thresholds:  THRVAR = 1.00D-08  THRDEN = 1.00D-06

 Number of core orbitals:           5 (   4   1 )
 Number of closed-shell orbitals:   4 (   3   1 )
 Number of external orbitals:      53 (  36  17 )

 Molecular orbitals read from record     2100.2  Type=RHF/CANONICAL  

 Number of N-1 electron functions:               4
 Number of N-2 electron functions:              10
 Number of singly external CSFs:               125
 Number of doubly external CSFs:             11703
 Total number of CSFs:                       11829

 Length of J-op  integral file:               0.00 MB
 Length of K-op  integral file:               0.21 MB

 Integral transformation finished. Total CPU:   0.02 sec, npass=  1  Memory used:   0.11 MW

 Reference energy:                   -398.58573383

                        CORR.ENERGY   TOTAL ENERGY   ENERGY CHANGE
 MP2:                   -0.20655290  -398.79228673    -0.20655290

 SCS-MP2 correlation energy:           -0.20768475   (PS=  1.200000  PT=  0.333333)
 SCS-MP2 total energy:               -398.79341858

 MP3(D):                -0.22838309  -398.81411692    -0.02183019



 RESULTS
 =======

  Reference energy                   -398.585733830598
  MP3 singlet pair energy              -0.158583381941
  MP3 triplet pair energy              -0.069799704464
  MP3 correlation energy               -0.228383086404

 !MP3 total energy                   -398.814116917002

 Timing summary (sec):

 STEP                 CPU(USER)    SYS     CPU(TOT)    WALL
 Transformation          0.02      0.01      0.03      0.04
 CCSD iterations         1.22      0.00      1.22      0.04

 Program statistics:

 Available memory in ccsd:               805306297
 Min. memory needed in ccsd:                 63163
 Max. memory used in ccsd:                   69791
 Max. memory used in cckext:                122546 ( 1 integral passes)



 **********************************************************************************************************************************
 DATASETS  * FILE   NREC   LENGTH (MB)   RECORD NAMES
              1      20       32.11       500      610      700      900      950      970     1000      129      960     1100   
                                          VAR    BASINP    GEOM    SYMINP    ZMAT    AOBASIS   BASIS     P2S    ABASIS      S 
                                         1400     1410     1200     1210     1080     1600     1650     1300     1700     1380   
                                           T        V       H0       H01     AOSYM     SMH    MOLCAS    ERIS     OPER     JKOP   

              2       4        0.45       700     1000      520     2100   
                                         GEOM     BASIS   MCVARS     RHF  

 PROGRAMS   *        TOTAL       MP3    HF-SCF       INT
 CPU TIMES  *         0.95      0.08      0.11      0.63
 REAL TIME  *         3.15 SEC
 DISK USED  *        45.16 MB
 **********************************************************************************************************************************

 Dump information in style XML to xml output                                                                      

 Orbitals will not be exported.

 **********************************************************************************************************************************

 MP3/cc-pVTZ energy=   -398.814116917002

             MP3          HF-SCF
   -398.81411692   -398.58573383
 **********************************************************************************************************************************
 Molpro calculation terminated
