
 Working directory              : /home/jovyan/scratch/molpro.oZ4wbEmF8G/
 Global scratch directory       : /home/jovyan/scratch/molpro.oZ4wbEmF8G/
 Wavefunction directory         : /home/jovyan/wfu/
 Main file repository           : /home/jovyan/scratch/molpro.oZ4wbEmF8G/

 id        : cardiff

 Nodes                nprocs
 jupyter-c-2efrancisan    1
 GA implementation: MPI file
 GA implementation (serial work in mppx): MPI file

 Using customized tuning parameters: mindgm=1; mindgv=20; mindgc=4; mindgr=1; noblas=0; minvec=7
 default implementation of scratch files=df  


 Variables initialized (1031), CPU time= 0.01 sec
 
 
 
 geometry={
 22
  C     0.7447222    0.0000000    0.0000000
  C     1.4787691   -1.1944594    0.0000000
  C     2.8667226   -1.1964878    0.0000000
  C     3.5730840    0.0000000    0.0000000
  C     2.8667226    1.1964878    0.0000000
  C     1.4787691    1.1944594    0.0000000
  C    -0.7447222    0.0000000    0.0000000
  C    -1.4787691   -1.1944594    0.0000000
  C    -2.8667226   -1.1964878    0.0000000
  C    -3.5730840    0.0000000    0.0000000
  C    -2.8667226    1.1964878    0.0000000
  C    -1.4787691    1.1944594    0.0000000
  H     0.9697085   -2.1465575    0.0000000
  H     3.3979977   -2.1399873    0.0000000
  H     4.6554610    0.0000000    0.0000000
  H     3.3979977    2.1399873    0.0000000
  H     0.9697085    2.1465575    0.0000000
  H    -0.9697085   -2.1465575    0.0000000
  H    -3.3979977   -2.1399873    0.0000000
  H    -4.6554610    0.0000000    0.0000000
  H    -3.3979977    2.1399873    0.0000000
  H    -0.9697085    2.1465575    0.0000000
 }
 basis=cc-pVDZ
 angstrom
 
 
 hf; mp2
 
 
 
 {put,xml;noorbitals,nobasis}
 Commands initialized (841), CPU time= 0.01 sec, 704 directives.
 Default parameters read. Elapsed time= 0.08 sec

 Checking input...
 Passed
1


                                         ***  PROGRAM SYSTEM MOLPRO  ***
                                       Copyright, TTI GmbH Stuttgart, 2015
                                    Version 2023.1 linked Mon Jun  5 13:27:10 2023


 **********************************************************************************************************************************
 LABEL *                                                                                                                                                                 
  (16 PROC) 64 bit serial version                                                        DATE: 03-Aug-23          TIME: 10:26:32  
 **********************************************************************************************************************************

 SHA1:             9738a14712571edd23541b6d7c4f3a3d766f8287
 **********************************************************************************************************************************

 Memory per process:       805 MW
 Total memory per node:   1074 MW
 Total GA space:           268 MW

 GA preallocation disabled
 GA check enabled

 Geometry recognized as XYZ


 Variable memory set to 805.3 MW

 SETTING BASIS          =    CC-PVDZ


 Recomputing integrals since basis changed


 Using spherical harmonics

 Library entry C      S cc-pVDZ              selected for orbital group  1
 Library entry C      P cc-pVDZ              selected for orbital group  1
 Library entry C      D cc-pVDZ              selected for orbital group  1
 Library entry H      S cc-pVDZ              selected for orbital group  2
 Library entry H      P cc-pVDZ              selected for orbital group  2


 PROGRAM * SEWARD (Integral evaluation for generally contracted gaussian basis sets)     Author: Roland Lindh, 1990

 Geometry written to block  1 of record 700


 Point group  D2h 



 ATOMIC COORDINATES

 NR  ATOM    CHARGE       X              Y              Z

   1  C       6.00    1.407320997    0.000000000    0.000000000
   2  C       6.00   -1.407320997    0.000000000    0.000000000
   3  C       6.00    2.794468601   -2.257201133    0.000000000
   4  C       6.00    2.794468601    2.257201133    0.000000000
   5  C       6.00   -2.794468601   -2.257201133    0.000000000
   6  C       6.00   -2.794468601    2.257201133    0.000000000
   7  C       6.00    5.417320589   -2.261034253    0.000000000
   8  C       6.00    5.417320589    2.261034253    0.000000000
   9  C       6.00   -5.417320589   -2.261034253    0.000000000
  10  C       6.00   -5.417320589    2.261034253    0.000000000
  11  C       6.00    6.752150180    0.000000000    0.000000000
  12  C       6.00   -6.752150180    0.000000000    0.000000000
  13  H       1.00    1.832483486   -4.056405786    0.000000000
  14  H       1.00    1.832483486    4.056405786    0.000000000
  15  H       1.00   -1.832483486   -4.056405786    0.000000000
  16  H       1.00   -1.832483486    4.056405786    0.000000000
  17  H       1.00    6.421285025   -4.043989907    0.000000000
  18  H       1.00    6.421285025    4.043989907    0.000000000
  19  H       1.00   -6.421285025   -4.043989907    0.000000000
  20  H       1.00   -6.421285025    4.043989907    0.000000000
  21  H       1.00    8.797546274    0.000000000    0.000000000
  22  H       1.00   -8.797546274    0.000000000    0.000000000

 Bond lengths in Bohr (Angstrom)

 1-2  2.814641994  1-3  2.649365099  1-4  2.649365099  2-5  2.649365099  2-6  2.649365099
     ( 1.489444400)     ( 1.401983634)     ( 1.401983634)     ( 1.401983634)     ( 1.401983634)

  3- 7  2.622854790   3-13  2.040233502   4- 8  2.622854790   4-14  2.040233502   5- 9  2.622854790
       ( 1.387954982)       ( 1.079645074)       ( 1.387954982)       ( 1.079645074)       ( 1.387954982)

  5-15  2.040233502   6-10  2.622854790   6-16  2.040233502   7-11  2.625651525   7-17  2.046185586
       ( 1.079645074)       ( 1.387954982)       ( 1.079645074)       ( 1.389434951)       ( 1.082794781)

  8-11  2.625651525   8-18  2.046185586   9-12  2.625651525   9-19  2.046185586  10-12  2.625651525
       ( 1.389434951)       ( 1.082794781)       ( 1.389434951)       ( 1.082794781)       ( 1.389434951)

 10-20  2.046185586  11-21  2.045396094  12-22  2.045396094
       ( 1.082794781)       ( 1.082377000)       ( 1.082377000)

 Bond angles

  1- 2- 5  121.57252160   1- 2- 6  121.57252160   1- 3- 7  121.65625544   1- 3-13  120.29529122

  1- 4- 8  121.65625544   1- 4-14  120.29529122   2- 1- 3  121.57252160   2- 1- 4  121.57252160

  2- 5- 9  121.65625544   2- 5-15  120.29529122   2- 6-10  121.65625544   2- 6-16  120.29529122

  3- 1- 4  116.85495679   3- 7-11  120.47227065   3- 7-17  119.46715876   4- 8-11  120.47227065

  4- 8-18  119.46715876   5- 2- 6  116.85495679   5- 9-12  120.47227065   5- 9-19  119.46715876

  6-10-12  120.47227065   6-10-20  119.46715876   7- 3-13  118.04845333   7-11- 8  118.88799102

  7-11-21  120.55600449   8- 4-14  118.04845333   8-11-21  120.55600449   9- 5-15  118.04845333

  9-12-10  118.88799102   9-12-22  120.55600449  10- 6-16  118.04845333  10-12-22  120.55600449

 11- 7-17  120.06057059  11- 8-18  120.06057059  12- 9-19  120.06057059  12-10-20  120.06057059

 NUCLEAR CHARGE:                   82
 NUMBER OF PRIMITIVE AOS:         394
 NUMBER OF SYMMETRY AOS:          382
 NUMBER OF CONTRACTIONS:          218   (   45Ag  +   45B3u +   35B2u +   35B1g +   17B1u +   17B2g +   12B3g +   12Au  )
 NUMBER OF INNER CORE ORBITALS:     0   (    0Ag  +    0B3u +    0B2u +    0B1g +    0B1u +    0B2g +    0B3g +    0Au  )
 NUMBER OF OUTER CORE ORBITALS:    12   (    4Ag  +    4B3u +    2B2u +    2B1g +    0B1u +    0B2g +    0B3g +    0Au  )
 NUMBER OF VALENCE ORBITALS:       58   (   13Ag  +   13B3u +   10B2u +   10B1g +    4B1u +    4B2g +    2B3g +    2Au  )


 NUCLEAR REPULSION ENERGY  600.31306901

 Eigenvalues of metric

         1 0.284E-03 0.226E-02 0.323E-02 0.146E-01 0.193E-01 0.217E-01 0.246E-01 0.259E-01
         2 0.223E-03 0.547E-03 0.147E-02 0.330E-02 0.117E-01 0.152E-01 0.223E-01 0.247E-01
         3 0.153E-02 0.215E-02 0.351E-02 0.144E-01 0.247E-01 0.308E-01 0.362E-01 0.534E-01
         4 0.331E-03 0.129E-02 0.290E-02 0.884E-02 0.202E-01 0.245E-01 0.306E-01 0.338E-01
         5 0.502E-01 0.111E+00 0.178E+00 0.218E+00 0.289E+00 0.392E+00 0.415E+00 0.422E+00
         6 0.296E-01 0.789E-01 0.155E+00 0.209E+00 0.267E+00 0.353E+00 0.389E+00 0.404E+00
         7 0.111E+00 0.174E+00 0.284E+00 0.373E+00 0.436E+00 0.462E+00 0.533E+00 0.146E+01
         8 0.925E-01 0.167E+00 0.261E+00 0.367E+00 0.398E+00 0.438E+00 0.529E+00 0.142E+01


 Contracted 2-electron integrals neglected if value below      1.0D-11
 AO integral compression algorithm  1   Integral accuracy      1.0D-11

     192.938 MB (compressed) written to integral file ( 53.0%)


 NUMBER OF SORTED TWO-ELECTRON INTEGRALS:   38075229.     BUFFER LENGTH:  32768
 NUMBER OF SEGMENTS:   3  SEGMENT LENGTH:   15998379      RECORD LENGTH: 524288

 Memory used in sort:      16.56 MW

 SORT1 READ    45430736. AND WROTE    37891583. INTEGRALS IN    110 RECORDS. CPU TIME:     3.02 SEC, REAL TIME:     3.41 SEC
 SORT2 READ    37891583. AND WROTE    38075229. INTEGRALS IN    736 RECORDS. CPU TIME:     1.12 SEC, REAL TIME:     1.35 SEC

 FILE SIZES:   FILE 1:   224.4 MBYTE,  FILE 4:   461.4 MBYTE,   TOTAL:    685.8 MBYTE

 OPERATOR DM      FOR CENTER  0  COORDINATES:    0.000000    0.000000    0.000000


 **********************************************************************************************************************************
 DATASETS  * FILE   NREC   LENGTH (MB)   RECORD NAMES
              1      19      186.77       500      610      700      900      950      970     1000      129      960     1100   
                                          VAR    BASINP    GEOM    SYMINP    ZMAT    AOBASIS   BASIS     P2S    ABASIS      S 
                                         1400     1410     1200     1210     1080     1600     1650     1300     1700   
                                           T        V       H0       H01     AOSYM     SMH    MOLCAS    ERIS     OPER   

 PROGRAMS   *        TOTAL       INT
 CPU TIMES  *        23.85     23.71
 REAL TIME  *        26.30 SEC
 DISK USED  *       654.79 MB
 **********************************************************************************************************************************


 Program * Restricted Hartree-Fock

 Orbital guess generated from atomic densities. Full valence occupancy:   17  17  12  12   4   4   2   2


 Initial occupancy:  11  10   7   7   2   2   1   1

 NELEC=   82   SYM=1   MS2= 0   THRE=1.0D-08   THRD=3.2D-06   THRG=3.2D-06  HFMA2=F  DIIS_START=2   DIIS_MAX=10   DIIS_INCORE=F

 Level shifts:    0.00 (CLOSED)    0.00 (OPEN)    0.30 (GAP_MIN)

 ITER           ETOT              DE          GRAD        DDIFF     DIIS  NEXP   TIME(IT)  TIME(TOT)  DIAG
   1     -460.17784375    -460.17784375     0.00D+00     0.19D+00     0     0       0.10      0.21    start
   2     -460.27394998      -0.09610623     0.73D-02     0.19D-01     1     0       0.11      0.32    diag
   3     -460.28315607      -0.00920610     0.25D-02     0.57D-02     2     0       0.11      0.43    diag
   4     -460.28456957      -0.00141350     0.94D-03     0.25D-02     3     0       0.10      0.53    diag
   5     -460.28463610      -0.00006653     0.22D-03     0.39D-03     4     0       0.11      0.64    diag
   6     -460.28464263      -0.00000653     0.59D-04     0.15D-03     5     0       0.11      0.75    diag
   7     -460.28464278      -0.00000015     0.62D-05     0.23D-04     6     0       0.12      0.87    diag
   8     -460.28464280      -0.00000002     0.25D-05     0.65D-05     7     0       0.11      0.98    fixocc
   9     -460.28464281      -0.00000001     0.13D-05     0.48D-05     8     0       0.10      1.08    diag
  10     -460.28464282      -0.00000000     0.50D-06     0.28D-05     9     0       0.11      1.19    diag/orth
  11     -460.28464282      -0.00000000     0.12D-06     0.31D-06     0     0       0.11      1.30    diag

 Final occupancy:  11  10   7   7   2   2   1   1

 !RHF STATE 1.1 Energy               -460.284642816116
  RHF One-electron energy           -1812.023047994855
  RHF Two-electron energy             751.425336169369
  RHF Kinetic energy                  460.017447018279
  RHF Nuclear energy                  600.313069009370
  RHF Virial quotient                  -1.000580838400

 !RHF STATE 1.1 Dipole moment           0.00000000     0.00000000     0.00000000
 Dipole moment /Debye                   0.00000000     0.00000000     0.00000000

 Orbital energies:

           1.1          2.1          3.1          4.1          5.1          6.1          7.1          8.1          9.1         10.1
    -11.251534   -11.239154   -11.237495   -11.236721    -1.171087    -1.055129    -0.854679    -0.723933    -0.660206    -0.588917

          11.1         12.1         13.1
     -0.487635     0.180679     0.223645

           1.2          2.2          3.2          4.2          5.2          6.2          7.2          8.2          9.2         10.2
    -11.250840   -11.239155   -11.237500   -11.236721    -1.143874    -0.985078    -0.792709    -0.678239    -0.611534    -0.515225

          11.2         12.2
      0.192981     0.249681

           1.3          2.3          3.3          4.3          5.3          6.3          7.3          8.3          9.3
    -11.238868   -11.237324    -1.023055    -0.847031    -0.642339    -0.596644    -0.506976     0.206270     0.253107

           1.4          2.4          3.4          4.4          5.4          6.4          7.4          8.4          9.4
    -11.238870   -11.237334    -1.011640    -0.804368    -0.597295    -0.573411    -0.472875     0.229603     0.348968

           1.5          2.5          3.5          4.5
     -0.526554    -0.378559     0.090744     0.328482

           1.6          2.6          3.6          4.6
     -0.489869    -0.291601     0.187390     0.401009

           1.7          2.7          3.7
     -0.340667     0.122042     0.706138

           1.8          2.8          3.8
     -0.333546     0.153459     0.741698


 HOMO      2.6    -0.291601 =      -7.9349eV
 LUMO      3.5     0.090744 =       2.4693eV
 LUMO-HOMO         0.382345 =      10.4041eV

 Orbitals saved in record  2100.2


 **********************************************************************************************************************************
 DATASETS  * FILE   NREC   LENGTH (MB)   RECORD NAMES
              1      19      186.77       500      610      700      900      950      970     1000      129      960     1100   
                                          VAR    BASINP    GEOM    SYMINP    ZMAT    AOBASIS   BASIS     P2S    ABASIS      S 
                                         1400     1410     1200     1210     1080     1600     1650     1300     1700   
                                           T        V       H0       H01     AOSYM     SMH    MOLCAS    ERIS     OPER   

              2       4        0.88       700     1000      520     2100   
                                         GEOM     BASIS   MCVARS     RHF  

 PROGRAMS   *        TOTAL    HF-SCF       INT
 CPU TIMES  *        25.16      1.30     23.71
 REAL TIME  *        27.86 SEC
 DISK USED  *       654.79 MB
 **********************************************************************************************************************************


 PROGRAM * MP2 (Closed-shell)     Authors: C. Hampel, H.-J. Werner, 1991, M. Deegan, P.J. Knowles, 1992


 Convergence thresholds:  THRVAR = 1.00D-08  THRDEN = 1.00D-06

 Number of core orbitals:          12 (   4   4   2   2   0   0   0   0 )
 Number of closed-shell orbitals:  29 (   7   6   5   5   2   2   1   1 )
 Number of external orbitals:     177 (  34  35  28  28  15  15  11  11 )

 Molecular orbitals read from record     2100.2  Type=RHF/CANONICAL  

 Number of N-1 electron functions:              29
 Number of N-2 electron functions:             435
 Number of singly external CSFs:               810
 Number of doubly external CSFs:           1746243
 Total number of CSFs:                     1747054

 Length of J-op  integral file:               0.00 MB
 Length of K-op  integral file:               0.57 MB

 Integral transformation finished. Total CPU:   0.64 sec, npass=  1  Memory used:   2.89 MW

 Memory needed for MP2:                      0.04 MW

 SCS-MP2 correlation energy:           -1.506658401146   (PS=  1.200000  PT=  0.333333)
 SCS-MP2 total energy:               -461.791301217263


  Reference energy                   -460.284642816116
  MP2 singlet pair energy              -0.929103155557
  MP2 triplet pair energy              -0.629573487555
  MP2 correlation energy               -1.558676643111

 !MP2 total energy                   -461.843319459227


 **********************************************************************************************************************************
 DATASETS  * FILE   NREC   LENGTH (MB)   RECORD NAMES
              1      20      218.95       500      610      700      900      950      970     1000      129      960     1100   
                                          VAR    BASINP    GEOM    SYMINP    ZMAT    AOBASIS   BASIS     P2S    ABASIS      S 
                                         1400     1410     1200     1210     1080     1600     1650     1300     1700     1380   
                                           T        V       H0       H01     AOSYM     SMH    MOLCAS    ERIS     OPER     JKOP   

              2       4        0.88       700     1000      520     2100   
                                         GEOM     BASIS   MCVARS     RHF  

 PROGRAMS   *        TOTAL       MP2    HF-SCF       INT
 CPU TIMES  *        26.05      0.89      1.30     23.71
 REAL TIME  *        29.02 SEC
 DISK USED  *       654.79 MB
 **********************************************************************************************************************************

 Dump information in style XML to xml output                                                                      

 Orbitals will not be exported.

 **********************************************************************************************************************************

 MP2/cc-pVDZ energy=   -461.843319459227

             MP2          HF-SCF
   -461.84331946   -460.28464282
 **********************************************************************************************************************************
 Molpro calculation terminated
