
 Working directory              : /home/jovyan/scratch/molpro.UMMPE8OWm6/
 Global scratch directory       : /home/jovyan/scratch/molpro.UMMPE8OWm6/
 Wavefunction directory         : /home/jovyan/wfu/
 Main file repository           : /home/jovyan/scratch/molpro.UMMPE8OWm6/

 id        : cardiff

 Nodes                nprocs
 jupyter-c-2efrancisan    1
 GA implementation: MPI file
 GA implementation (serial work in mppx): MPI file

 Using customized tuning parameters: mindgm=1; mindgv=20; mindgc=4; mindgr=1; noblas=0; minvec=7
 default implementation of scratch files=df  


 Variables initialized (1031), CPU time= 0.01 sec
 
 
 
 geometry={
 6
  C    -0.3457134   -0.1728909    0.0000000
  C     1.3843767   -0.0520074    0.0000000
  N     0.9800815    1.0640658    0.0000000
  H    -1.0272588    0.6727741    0.0000000
  H    -0.4957430   -0.7559709    0.9004849
  H    -0.4957430   -0.7559709   -0.9004849
 }
 basis=cc-pVDZ
 angstrom
 
 
 hf; ccsd(t)
 
 
 
 {put,xml;noorbitals,nobasis}
 Commands initialized (841), CPU time= 0.01 sec, 704 directives.
 Default parameters read. Elapsed time= 0.09 sec

 Checking input...
 Passed
1


                                         ***  PROGRAM SYSTEM MOLPRO  ***
                                       Copyright, TTI GmbH Stuttgart, 2015
                                    Version 2023.1 linked Mon Jun  5 13:27:10 2023


 **********************************************************************************************************************************
 LABEL *                                                                                                                                                                 
  (16 PROC) 64 bit serial version                                                        DATE: 02-Aug-23          TIME: 15:53:56  
 **********************************************************************************************************************************

 SHA1:             9738a14712571edd23541b6d7c4f3a3d766f8287
 **********************************************************************************************************************************

 Memory per process:       805 MW
 Total memory per node:   1074 MW
 Total GA space:           268 MW

 GA preallocation disabled
 GA check enabled

 Geometry recognized as XYZ


 Variable memory set to 805.3 MW

 SETTING BASIS          =    CC-PVDZ


 Recomputing integrals since basis changed


 Using spherical harmonics

 Library entry C      S cc-pVDZ              selected for orbital group  1
 Library entry C      P cc-pVDZ              selected for orbital group  1
 Library entry C      D cc-pVDZ              selected for orbital group  1
 Library entry N      S cc-pVDZ              selected for orbital group  2
 Library entry N      P cc-pVDZ              selected for orbital group  2
 Library entry N      D cc-pVDZ              selected for orbital group  2
 Library entry H      S cc-pVDZ              selected for orbital group  3
 Library entry H      P cc-pVDZ              selected for orbital group  3


 PROGRAM * SEWARD (Integral evaluation for generally contracted gaussian basis sets)     Author: Roland Lindh, 1990

 Geometry written to block  1 of record 700


 Point group  Cs  



 ATOMIC COORDINATES

 NR  ATOM    CHARGE       X              Y              Z

   1  C       6.00   -0.653303644   -0.326716450    0.000000000
   2  C       6.00    2.616092816   -0.098279742    0.000000000
   3  N       7.00    1.852085615    2.010792941    0.000000000
   4  H       1.00   -1.941237791    1.271358793    0.000000000
   5  H       1.00   -0.936818498   -1.428577959    1.701669840
   6  H       1.00   -0.936818498   -1.428577959   -1.701669840

 Bond lengths in Bohr (Angstrom)

 1-2  3.277367319  1-3  3.426503391  1-4  2.052466529  1-5  2.046987959  1-6  2.046987959
     ( 1.734308097)     ( 1.813227508)     ( 1.086118513)     ( 1.083219379)     ( 1.083219379)

 2-3  2.243188487
     ( 1.187044227)

 Bond angles

  1-2-3   74.08401590   1-3-2   66.89818670   2-1-3   39.01779740   2-1-4  124.86949562

  2-1-5  100.11856319   2-1-6  100.11856319   3-1-4   85.85169821   3-1-5  117.93570051

  3-1-6  117.93570051   4-1-5  109.40254328   4-1-6  109.40254328   5-1-6  112.46590517

 NUCLEAR CHARGE:                   22
 NUMBER OF PRIMITIVE AOS:         102
 NUMBER OF SYMMETRY AOS:           99
 NUMBER OF CONTRACTIONS:           57   (   39A'  +   18A"  )
 NUMBER OF INNER CORE ORBITALS:     0   (    0A'  +    0A"  )
 NUMBER OF OUTER CORE ORBITALS:     3   (    3A'  +    0A"  )
 NUMBER OF VALENCE ORBITALS:       15   (   11A'  +    4A"  )


 NUCLEAR REPULSION ENERGY   60.55176060

 Eigenvalues of metric

         1 0.558E-02 0.811E-02 0.181E-01 0.348E-01 0.379E-01 0.463E-01 0.534E-01 0.810E-01
         2 0.361E-01 0.455E-01 0.114E+00 0.133E+00 0.184E+00 0.302E+00 0.324E+00 0.505E+00


 Contracted 2-electron integrals neglected if value below      1.0D-11
 AO integral compression algorithm  1   Integral accuracy      1.0D-11

     4.194 MB (compressed) written to integral file ( 61.2%)


 NUMBER OF SORTED TWO-ELECTRON INTEGRALS:     719436.     BUFFER LENGTH:  32768
 NUMBER OF SEGMENTS:   1  SEGMENT LENGTH:     719436      RECORD LENGTH: 524288

 Memory used in sort:       1.28 MW

 SORT1 READ      867711. AND WROTE      711683. INTEGRALS IN      3 RECORDS. CPU TIME:     0.01 SEC, REAL TIME:     0.05 SEC
 SORT2 READ      711683. AND WROTE      719436. INTEGRALS IN     16 RECORDS. CPU TIME:     0.04 SEC, REAL TIME:     0.05 SEC

 FILE SIZES:   FILE 1:    34.4 MBYTE,  FILE 4:    12.6 MBYTE,   TOTAL:     47.0 MBYTE

 OPERATOR DM      FOR CENTER  0  COORDINATES:    0.000000    0.000000    0.000000


 **********************************************************************************************************************************
 DATASETS  * FILE   NREC   LENGTH (MB)   RECORD NAMES
              1      19       31.94       500      610      700      900      950      970     1000      129      960     1100   
                                          VAR    BASINP    GEOM    SYMINP    ZMAT    AOBASIS   BASIS     P2S    ABASIS      S 
                                         1400     1410     1200     1210     1080     1600     1650     1300     1700   
                                           T        V       H0       H01     AOSYM     SMH    MOLCAS    ERIS     OPER   

 PROGRAMS   *        TOTAL       INT
 CPU TIMES  *         0.75      0.61
 REAL TIME  *         1.91 SEC
 DISK USED  *        45.24 MB
 **********************************************************************************************************************************


 Program * Restricted Hartree-Fock

 Orbital guess generated from atomic densities. Full valence occupancy:   14   4

 Initial occupancy:   9   2

 NELEC=   22   SYM=1   MS2= 0   THRE=1.0D-08   THRD=3.2D-06   THRG=3.2D-06  HFMA2=F  DIIS_START=2   DIIS_MAX=10   DIIS_INCORE=F

 Level shifts:    0.00 (CLOSED)    0.00 (OPEN)    0.30 (GAP_MIN)

 ITER           ETOT              DE          GRAD        DDIFF     DIIS  NEXP   TIME(IT)  TIME(TOT)  DIAG
   1     -131.80386695    -131.80386695     0.00D+00     0.19D+00     0     0       0.01      0.01    start
   2     -131.83053512      -0.02666817     0.76D-02     0.17D-01     1     0       0.01      0.02    diag
   3     -131.83384865      -0.00331354     0.27D-02     0.53D-02     2     0       0.00      0.02    diag
   4     -131.83462693      -0.00077828     0.12D-02     0.27D-02     3     0       0.01      0.03    diag
   5     -131.83472982      -0.00010289     0.37D-03     0.78D-03     4     0       0.01      0.04    diag
   6     -131.83476337      -0.00003355     0.20D-03     0.48D-03     5     0       0.00      0.04    diag
   7     -131.83477199      -0.00000862     0.73D-04     0.27D-03     6     0       0.01      0.05    diag
   8     -131.83477292      -0.00000093     0.27D-04     0.11D-03     7     0       0.01      0.06    fixocc
   9     -131.83477299      -0.00000006     0.68D-05     0.24D-04     8     0       0.00      0.06    diag
  10     -131.83477299      -0.00000001     0.22D-05     0.82D-05     9     0       0.01      0.07    diag/orth
  11     -131.83477299      -0.00000000     0.61D-06     0.20D-05     9     0       0.01      0.08    diag
  12     -131.83477299      -0.00000000     0.18D-06     0.37D-06     0     0       0.00      0.08    diag

 Final occupancy:   9   2

 !RHF STATE 1.1 Energy               -131.834772992555
  RHF One-electron energy            -297.079996912207
  RHF Two-electron energy             104.693463320564
  RHF Kinetic energy                  131.744358677825
  RHF Nuclear energy                   60.551760599087
  RHF Virial quotient                  -1.000686286044

 !RHF STATE 1.1 Dipole moment          -1.00986011    -0.36207314     0.00000000
 Dipole moment /Debye                  -2.56680838    -0.92029813     0.00000000

 Orbital energies:

           1.1          2.1          3.1          4.1          5.1          6.1          7.1          8.1          9.1         10.1
    -15.613870   -11.318757   -11.272015    -1.284732    -0.966502    -0.699428    -0.572251    -0.545324    -0.458021     0.147471

          11.1
      0.195627

           1.2          2.2          3.2          4.2
     -0.637453    -0.478182     0.192925     0.252015


 HOMO      9.1    -0.458021 =     -12.4634eV
 LUMO     10.1     0.147471 =       4.0129eV
 LUMO-HOMO         0.605492 =      16.4763eV

 Orbitals saved in record  2100.2


 **********************************************************************************************************************************
 DATASETS  * FILE   NREC   LENGTH (MB)   RECORD NAMES
              1      19       31.94       500      610      700      900      950      970     1000      129      960     1100   
                                          VAR    BASINP    GEOM    SYMINP    ZMAT    AOBASIS   BASIS     P2S    ABASIS      S 
                                         1400     1410     1200     1210     1080     1600     1650     1300     1700   
                                           T        V       H0       H01     AOSYM     SMH    MOLCAS    ERIS     OPER   

              2       4        0.49       700     1000      520     2100   
                                         GEOM     BASIS   MCVARS     RHF  

 PROGRAMS   *        TOTAL    HF-SCF       INT
 CPU TIMES  *         0.84      0.09      0.61
 REAL TIME  *         2.04 SEC
 DISK USED  *        45.24 MB
 **********************************************************************************************************************************


 PROGRAM * CCSD (Closed-shell coupled cluster)     Authors: C. Hampel, H.-J. Werner, 1991, M. Deegan, P.J. Knowles, 1992


 Convergence thresholds:  THRVAR = 1.00D-08  THRDEN = 1.00D-06

 CCSD(T)     terms to be evaluated (factor= 1.000)


 Number of core orbitals:           3 (   3   0 )
 Number of closed-shell orbitals:   8 (   6   2 )
 Number of external orbitals:      46 (  30  16 )

 Molecular orbitals read from record     2100.2  Type=RHF/CANONICAL  

 Number of N-1 electron functions:               8
 Number of N-2 electron functions:              36
 Number of singly external CSFs:               212
 Number of doubly external CSFs:             34824
 Total number of CSFs:                       35037

 Length of J-op  integral file:               0.00 MB
 Length of K-op  integral file:               0.19 MB
 Length of 3-ext integral record:             0.00 MB

 Memory could be reduced to 0.67 Mwords without degradation in triples

 Integral transformation finished. Total CPU:   0.03 sec, npass=  1  Memory used:   0.36 MW

 Reference energy:                   -131.83477299

 MP2 singlet pair energy:              -0.26079553
 MP2 triplet pair energy:              -0.15427221
 MP2 correlation energy:               -0.41506775
 MP2 total energy:                   -132.24984074

 SCS-MP2 correlation energy:           -0.40894624   (PS=  1.200000  PT=  0.333333)
 SCS-MP2 total energy:               -132.24371923

 ITER.      SQ.NORM     CORR.ENERGY   TOTAL ENERGY   ENERGY CHANGE        DEN1      VAR(S)    VAR(P)  DIIS     TIME  TIME/IT
   1      1.16248991    -0.43859046  -132.27336346    -0.02352271    -0.00883240  0.29D-02  0.35D-02  1  1     1.29     0.08
   2      1.17861129    -0.44151337  -132.27628636    -0.00292291    -0.01391670  0.11D-03  0.53D-03  2  2     1.35     0.07
   3      1.18558820    -0.44188022  -132.27665322    -0.00036685    -0.00301123  0.93D-04  0.34D-04  3  3     1.39     0.07
   4      1.18912715    -0.44203274  -132.27680573    -0.00015252    -0.00087973  0.17D-04  0.68D-05  4  4     1.44     0.06
   5      1.19079906    -0.44205371  -132.27682671    -0.00002097    -0.00026187  0.43D-05  0.10D-05  5  5     1.49     0.06
   6      1.19145025    -0.44204884  -132.27682183     0.00000487    -0.00006232  0.51D-06  0.23D-06  6  6     1.54     0.06
   7      1.19164956    -0.44204919  -132.27682218    -0.00000035    -0.00001899  0.13D-06  0.37D-07  6  1     1.59     0.06
   8      1.19170009    -0.44204904  -132.27682204     0.00000015     0.00000436  0.12D-07  0.56D-08  6  2     1.64     0.06
   9      1.19171835    -0.44204902  -132.27682202     0.00000002    -0.00000356  0.17D-08  0.62D-09  6  3     1.69     0.06

 Norm of t1 vector:      0.10113458      S-energy:     0.00000199      T1 diagnostic:  0.01787824
                                                                       D1 diagnostic:  0.04610292
                                                                       D2 diagnostic:  0.16843261 (internal)

 Doubles amplitudes (print threshold =  0.500E-01):

         I         J         SYM. A    SYM. B    A         B      T(IJ, AB)

         8         8         2         2         1         1     -0.06511293


 Total CPU time for triples:      0.24 sec


 RESULTS
 =======

  Reference energy                   -131.834772992556
  CCSD singlet pair energy             -0.304780239405
  CCSD triplet pair energy             -0.137270772874
  CCSD correlation energy              -0.442049023137

  Triples (T) contribution             -0.017933762552
  Total correlation energy             -0.459982785689

  CCSD total energy                  -132.276822015692
  CCSD[T] energy                     -132.295647844654
  CCSD-T energy                      -132.294484607962
 !CCSD(T) total energy               -132.294755778244

 Timing summary (sec):

 STEP                 CPU(USER)    SYS     CPU(TOT)    WALL
 Transformation          0.03      0.01      0.04      0.10
 CCSD iterations         1.67      0.07      1.74      0.56
 Triples                 0.24      0.01      0.25      0.25

 Program statistics:

 Available memory in ccsd:               805306103
 Min. memory needed in ccsd:                121196
 Max. memory used in ccsd:                  146794
 Max. memory used in cckext:                195080 ( 9 integral passes)



 **********************************************************************************************************************************
 DATASETS  * FILE   NREC   LENGTH (MB)   RECORD NAMES
              1      20       34.22       500      610      700      900      950      970     1000      129      960     1100   
                                          VAR    BASINP    GEOM    SYMINP    ZMAT    AOBASIS   BASIS     P2S    ABASIS      S 
                                         1400     1410     1200     1210     1080     1600     1650     1300     1700     1380   
                                           T        V       H0       H01     AOSYM     SMH    MOLCAS    ERIS     OPER     JKOP   

              2       4        0.49       700     1000      520     2100   
                                         GEOM     BASIS   MCVARS     RHF  

 PROGRAMS   *        TOTAL   CCSD(T)    HF-SCF       INT
 CPU TIMES  *         1.60      0.76      0.09      0.61
 REAL TIME  *         3.00 SEC
 DISK USED  *        45.24 MB
 **********************************************************************************************************************************

 Dump information in style XML to xml output                                                                      

 Orbitals will not be exported.

 **********************************************************************************************************************************

 CCSD(T)/cc-pVDZ energy=   -132.294755778244

         CCSD(T)          HF-SCF
   -132.29475578   -131.83477299
 **********************************************************************************************************************************
 Molpro calculation terminated
