
 Working directory              : /home/jovyan/scratch/molpro.Z0M0wqvLuO/
 Global scratch directory       : /home/jovyan/scratch/molpro.Z0M0wqvLuO/
 Wavefunction directory         : /home/jovyan/wfu/
 Main file repository           : /home/jovyan/scratch/molpro.Z0M0wqvLuO/

 id        : cardiff

 Nodes                nprocs
 jupyter-c-2efrancisan    1
 GA implementation: MPI file
 GA implementation (serial work in mppx): MPI file

 Using customized tuning parameters: mindgm=1; mindgv=20; mindgc=4; mindgr=1; noblas=0; minvec=7
 default implementation of scratch files=df  


 Variables initialized (1031), CPU time= 0.00 sec
 
 
 
 geometry={
 6
  2H2OTS (Full point group C2h)
  O 0.000000 1.098108 0.000000
  H 0.000000 0.000000 0.596495
  H 0.000000 0.000000 -0.596495
  O 0.000000 -1.098108 0.000000
  H 0.867311 1.517487 0.000000
  H -0.867311 -1.517487 0.000000
 }
 basis=cc-pVTZ
 angstrom
 
 
 hf; mp4
 
 
 
 {put,xml;noorbitals,nobasis}
 Commands initialized (841), CPU time= 0.01 sec, 704 directives.
 Default parameters read. Elapsed time= 0.08 sec

 Checking input...
 Passed
1


                                         ***  PROGRAM SYSTEM MOLPRO  ***
                                       Copyright, TTI GmbH Stuttgart, 2015
                                    Version 2023.1 linked Mon Jun  5 13:27:10 2023


 **********************************************************************************************************************************
 LABEL *                                                                                                                                                                 
  (16 PROC) 64 bit serial version                                                        DATE: 03-Aug-23          TIME: 12:46:13  
 **********************************************************************************************************************************

 SHA1:             9738a14712571edd23541b6d7c4f3a3d766f8287
 **********************************************************************************************************************************

 Memory per process:       805 MW
 Total memory per node:   1074 MW
 Total GA space:           268 MW

 GA preallocation disabled
 GA check enabled

 Geometry recognized as XYZ


 Variable memory set to 805.3 MW

 SETTING BASIS          =    CC-PVTZ


 Recomputing integrals since basis changed


 Using spherical harmonics

 Library entry O      S cc-pVTZ              selected for orbital group  1
 Library entry O      P cc-pVTZ              selected for orbital group  1
 Library entry O      D cc-pVTZ              selected for orbital group  1
 Library entry O      F cc-pVTZ              selected for orbital group  1
 Library entry H      S cc-pVTZ              selected for orbital group  2
 Library entry H      P cc-pVTZ              selected for orbital group  2
 Library entry H      D cc-pVTZ              selected for orbital group  2


 PROGRAM * SEWARD (Integral evaluation for generally contracted gaussian basis sets)     Author: Roland Lindh, 1990

 Geometry written to block  1 of record 700


 Point group  C2h 



 ATOMIC COORDINATES

 NR  ATOM    CHARGE       X              Y              Z

   1  O       8.00    0.000000000    2.075123375    0.000000000
   2  O       8.00    0.000000000   -2.075123375    0.000000000
   3  H       1.00    0.000000000    0.000000000    1.127212185
   4  H       1.00    0.000000000    0.000000000   -1.127212185
   5  H       1.00    1.638980255    2.867634828    0.000000000
   6  H       1.00   -1.638980255   -2.867634828    0.000000000

 Bond lengths in Bohr (Angstrom)

 1-3  2.361513145  1-4  2.361513145  1-5  1.820530329  2-3  2.361513145  2-4  2.361513145
     ( 1.249658939)     ( 1.249658939)     ( 0.963383162)     ( 1.249658939)     ( 1.249658939)

 2-6  1.820530329
     ( 0.963383162)

 Bond angles

  1-3-2  122.97816098   1-4-2  122.97816098   3-1-4   57.02183902   3-1-5  112.49024921

  3-2-4   57.02183902   3-2-6  112.49024921   4-1-5  112.49024921   4-2-6  112.49024921

 NUCLEAR CHARGE:                   20
 NUMBER OF PRIMITIVE AOS:         162
 NUMBER OF SYMMETRY AOS:          148
 NUMBER OF CONTRACTIONS:          116   (   38Ag  +   22Au  +   36Bu  +   20Bg  )
 NUMBER OF INNER CORE ORBITALS:     0   (    0Ag  +    0Au  +    0Bu  +    0Bg  )
 NUMBER OF OUTER CORE ORBITALS:     2   (    1Ag  +    0Au  +    1Bu  +    0Bg  )
 NUMBER OF VALENCE ORBITALS:       12   (    5Ag  +    2Au  +    4Bu  +    1Bg  )


 NUCLEAR REPULSION ENERGY   42.57367525

 Eigenvalues of metric

         1 0.170E-02 0.412E-02 0.691E-02 0.926E-02 0.259E-01 0.391E-01 0.465E-01 0.598E-01
         2 0.349E-02 0.337E-01 0.421E-01 0.523E-01 0.797E-01 0.112E+00 0.264E+00 0.358E+00
         3 0.173E-02 0.540E-02 0.892E-02 0.134E-01 0.429E-01 0.481E-01 0.762E-01 0.904E-01
         4 0.210E-01 0.542E-01 0.104E+00 0.179E+00 0.227E+00 0.278E+00 0.387E+00 0.496E+00


 Contracted 2-electron integrals neglected if value below      1.0D-11
 AO integral compression algorithm  1   Integral accuracy      1.0D-11

     30.147 MB (compressed) written to integral file ( 47.2%)


 NUMBER OF SORTED TWO-ELECTRON INTEGRALS:    5951299.     BUFFER LENGTH:  32768
 NUMBER OF SEGMENTS:   1  SEGMENT LENGTH:    5951299      RECORD LENGTH: 524288

 Memory used in sort:       6.51 MW

 SORT1 READ     7942200. AND WROTE     4980314. INTEGRALS IN     15 RECORDS. CPU TIME:     0.15 SEC, REAL TIME:     0.19 SEC
 SORT2 READ     4980314. AND WROTE     5951299. INTEGRALS IN    115 RECORDS. CPU TIME:     0.23 SEC, REAL TIME:     0.26 SEC

 FILE SIZES:   FILE 1:    60.5 MBYTE,  FILE 4:    63.0 MBYTE,   TOTAL:    123.5 MBYTE

 OPERATOR DM      FOR CENTER  0  COORDINATES:    0.000000    0.000000    0.000000


 **********************************************************************************************************************************
 DATASETS  * FILE   NREC   LENGTH (MB)   RECORD NAMES
              1      19       51.07       500      610      700      900      950      970     1000      129      960     1100   
                                          VAR    BASINP    GEOM    SYMINP    ZMAT    AOBASIS   BASIS     P2S    ABASIS      S 
                                         1400     1410     1200     1210     1080     1600     1650     1300     1700   
                                           T        V       H0       H01     AOSYM     SMH    MOLCAS    ERIS     OPER   

 PROGRAMS   *        TOTAL       INT
 CPU TIMES  *         1.80      1.65
 REAL TIME  *         2.93 SEC
 DISK USED  *       118.22 MB
 **********************************************************************************************************************************


 Program * Restricted Hartree-Fock

 Orbital guess generated from atomic densities. Full valence occupancy:    6   2   5   1

 Initial occupancy:   4   1   4   1

 NELEC=   20   SYM=1   MS2= 0   THRE=1.0D-08   THRD=3.2D-06   THRG=3.2D-06  HFMA2=F  DIIS_START=2   DIIS_MAX=10   DIIS_INCORE=F

 Level shifts:    0.00 (CLOSED)    0.00 (OPEN)    0.30 (GAP_MIN)

 ITER           ETOT              DE          GRAD        DDIFF     DIIS  NEXP   TIME(IT)  TIME(TOT)  DIAG
   1     -151.95703102    -151.95703102     0.00D+00     0.14D+00     0     0       0.03      0.05    start
   2     -152.00133442      -0.04430340     0.16D-01     0.21D-01     1     0       0.03      0.08    diag
   3     -152.01565282      -0.01431839     0.89D-02     0.72D-02     2     0       0.03      0.11    diag
   4     -152.01596389      -0.00031107     0.91D-03     0.10D-02     3     0       0.03      0.14    diag
   5     -152.01598967      -0.00002579     0.22D-03     0.29D-03     4     0       0.02      0.16    diag
   6     -152.01599134      -0.00000167     0.49D-04     0.81D-04     5     0       0.03      0.19    diag
   7     -152.01599142      -0.00000008     0.11D-04     0.21D-04     6     0       0.02      0.21    diag
   8     -152.01599143      -0.00000001     0.29D-05     0.70D-05     7     0       0.03      0.24    fixocc
   9     -152.01599143      -0.00000000     0.58D-06     0.12D-05     8     0       0.03      0.27    diag
  10     -152.01599143      -0.00000000     0.63D-07     0.80D-07     0     0       0.03      0.30    diag/orth

 Final occupancy:   4   1   4   1

 !RHF STATE 1.1 Energy               -152.015991427004
  RHF One-electron energy            -294.550436889710
  RHF Two-electron energy              99.960770215885
  RHF Kinetic energy                  151.797308726847
  RHF Nuclear energy                   42.573675246821
  RHF Virial quotient                  -1.001440623039

 !RHF STATE 1.1 Dipole moment           0.00000000     0.00000000     0.00000000
 Dipole moment /Debye                   0.00000000     0.00000000     0.00000000

 Orbital energies:

           1.1          2.1          3.1          4.1          5.1          6.1
    -20.555325    -1.377082    -0.787129    -0.561282     0.138563     0.260798

           1.2          2.2          3.2
     -0.600024     0.242413     0.451369

           1.3          2.3          3.3          4.3          5.3          6.3
    -20.555372    -1.289476    -0.643994    -0.465744     0.179962     0.495237

           1.4          2.4          3.4
     -0.479022     0.748844     0.787010


 HOMO      4.3    -0.465744 =     -12.6735eV
 LUMO      5.1     0.138563 =       3.7705eV
 LUMO-HOMO         0.604307 =      16.4440eV

 Orbitals saved in record  2100.2


 **********************************************************************************************************************************
 DATASETS  * FILE   NREC   LENGTH (MB)   RECORD NAMES
              1      19       51.07       500      610      700      900      950      970     1000      129      960     1100   
                                          VAR    BASINP    GEOM    SYMINP    ZMAT    AOBASIS   BASIS     P2S    ABASIS      S 
                                         1400     1410     1200     1210     1080     1600     1650     1300     1700   
                                           T        V       H0       H01     AOSYM     SMH    MOLCAS    ERIS     OPER   

              2       4        0.53       700     1000      520     2100   
                                         GEOM     BASIS   MCVARS     RHF  

 PROGRAMS   *        TOTAL    HF-SCF       INT
 CPU TIMES  *         2.10      0.31      1.65
 REAL TIME  *         3.27 SEC
 DISK USED  *       118.22 MB
 **********************************************************************************************************************************


 PROGRAM * MP4 (Closed-shell)     Authors: C. Hampel, H.-J. Werner, 1991, M. Deegan, P.J. Knowles, 1992


 Convergence thresholds:  THRVAR = 1.00D-08  THRDEN = 1.00D-06

 MP4(T)     terms to be evaluated (factor= 0.000)


 Number of core orbitals:           2 (   1   0   1   0 )
 Number of closed-shell orbitals:   8 (   3   1   3   1 )
 Number of external orbitals:     106 (  34  21  32  19 )

 Molecular orbitals read from record     2100.2  Type=RHF/CANONICAL  

 Number of N-1 electron functions:               8
 Number of N-2 electron functions:              36
 Number of singly external CSFs:               238
 Number of doubly external CSFs:             91664
 Total number of CSFs:                       91903

 Length of J-op  integral file:               0.00 MB
 Length of K-op  integral file:               0.31 MB

 Memory could be reduced to 3.27 Mwords without degradation in triples

 Integral transformation finished. Total CPU:   0.12 sec, npass=  1  Memory used:   0.66 MW

 Reference energy:                   -152.01599143

                        CORR.ENERGY   TOTAL ENERGY   ENERGY CHANGE
 MP2:                   -0.55924785  -152.57523928    -0.55924785

 SCS-MP2 correlation energy:           -0.54762698   (PS=  1.200000  PT=  0.333333)
 SCS-MP2 total energy:               -152.56361840

 MP3(D):                -0.55634390  -152.57233533     0.00290395
 MP4(DQ):               -0.55725054  -152.57324197    -0.00090664
 MP4(SDQ):              -0.56242832  -152.57841975    -0.00517778

 Norm of t1 vector:      0.05443919      S-energy:    -0.00517778      T1 diagnostic:  0.00962358


 Total CPU time for triples:      1.22 sec


 RESULTS
 =======

  Reference energy                   -152.015991427004
  MP4(SDQ) singlet pair energy         -0.362802305636
  MP4(SDQ) triplet pair energy         -0.194448233132
  MP4(SDQ) correlation energy          -0.562428323631

  Triples contribution                 -0.023395830745
  Total correlation energy             -0.585824154376

  MP4(SDQ) total energy              -152.578419750635
 !MP4(SDTQ) total energy             -152.601815581380

 Timing summary (sec):

 STEP                 CPU(USER)    SYS     CPU(TOT)    WALL
 Transformation          0.13      0.03      0.16      0.26
 CCSD iterations         2.53      0.03      2.56      0.28
 Triples                 1.22      0.05      1.27      1.29

 Program statistics:

 Available memory in ccsd:               805306108
 Min. memory needed in ccsd:                285299
 Max. memory used in ccsd:                  360769
 Max. memory used in cckext:                358854 ( 1 integral passes)



 **********************************************************************************************************************************
 DATASETS  * FILE   NREC   LENGTH (MB)   RECORD NAMES
              1      20       61.81       500      610      700      900      950      970     1000      129      960     1100   
                                          VAR    BASINP    GEOM    SYMINP    ZMAT    AOBASIS   BASIS     P2S    ABASIS      S 
                                         1400     1410     1200     1210     1080     1600     1650     1300     1700     1380   
                                           T        V       H0       H01     AOSYM     SMH    MOLCAS    ERIS     OPER     JKOP   

              2       4        0.53       700     1000      520     2100   
                                         GEOM     BASIS   MCVARS     RHF  

 PROGRAMS   *        TOTAL       MP4    HF-SCF       INT
 CPU TIMES  *         3.70      1.60      0.31      1.65
 REAL TIME  *        10.93 SEC
 DISK USED  *       118.22 MB
 **********************************************************************************************************************************

 Dump information in style XML to xml output                                                                      

 Orbitals will not be exported.

 **********************************************************************************************************************************

 MP4/cc-pVTZ energy=   -152.601815581380

             MP4          HF-SCF
   -152.60181558   -152.01599143
 **********************************************************************************************************************************
 Molpro calculation terminated
