
 Working directory              : /home/jovyan/scratch/molpro.p619XZAqHh/
 Global scratch directory       : /home/jovyan/scratch/molpro.p619XZAqHh/
 Wavefunction directory         : /home/jovyan/wfu/
 Main file repository           : /home/jovyan/scratch/molpro.p619XZAqHh/

 id        : cardiff

 Nodes                nprocs
 jupyter-c-2efrancisan    1
 GA implementation: MPI file
 GA implementation (serial work in mppx): MPI file

 Using customized tuning parameters: mindgm=1; mindgv=20; mindgc=4; mindgr=1; noblas=0; minvec=7
 default implementation of scratch files=df  


 Variables initialized (1031), CPU time= 0.01 sec
 
 
 
 geometry={
            6
     C          0.96745826     -0.11636709      0.00000000
     N         -0.30997205     -0.08985970      0.00000000
     C         -1.52110730     -0.22012413      0.00000000
     H          1.50098112     -0.12812485      0.94177700
     H          1.50098112     -0.12812485     -0.94177700
     H         -2.13834115      0.68260062      0.00000000
 }
 basis=cc-pVDZ
 angstrom
 
 
 hf; mp4
 
 
 
 {put,xml;noorbitals,nobasis}
 Commands initialized (841), CPU time= 0.01 sec, 704 directives.
 Default parameters read. Elapsed time= 0.08 sec

 Checking input...
 Passed
1


                                         ***  PROGRAM SYSTEM MOLPRO  ***
                                       Copyright, TTI GmbH Stuttgart, 2015
                                    Version 2023.1 linked Mon Jun  5 13:27:10 2023


 **********************************************************************************************************************************
 LABEL *                                                                                                                                                                 
  (16 PROC) 64 bit serial version                                                        DATE: 03-Aug-23          TIME: 10:21:08  
 **********************************************************************************************************************************

 SHA1:             9738a14712571edd23541b6d7c4f3a3d766f8287
 **********************************************************************************************************************************

 Memory per process:       805 MW
 Total memory per node:   1074 MW
 Total GA space:           268 MW

 GA preallocation disabled
 GA check enabled

 Geometry recognized as XYZ


 Variable memory set to 805.3 MW

 SETTING BASIS          =    CC-PVDZ


 Recomputing integrals since basis changed


 Using spherical harmonics

 Library entry C      S cc-pVDZ              selected for orbital group  1
 Library entry C      P cc-pVDZ              selected for orbital group  1
 Library entry C      D cc-pVDZ              selected for orbital group  1
 Library entry N      S cc-pVDZ              selected for orbital group  2
 Library entry N      P cc-pVDZ              selected for orbital group  2
 Library entry N      D cc-pVDZ              selected for orbital group  2
 Library entry H      S cc-pVDZ              selected for orbital group  4
 Library entry H      P cc-pVDZ              selected for orbital group  4


 PROGRAM * SEWARD (Integral evaluation for generally contracted gaussian basis sets)     Author: Roland Lindh, 1990

 Geometry written to block  1 of record 700


 Point group  Cs  



 ATOMIC COORDINATES

 NR  ATOM    CHARGE       X              Y              Z

   1  C       6.00    1.828231148   -0.219901930    0.000000000
   2  N       7.00   -0.585762281   -0.169810223    0.000000000
   3  C       6.00   -2.874476203   -0.415974319    0.000000000
   4  H       1.00    2.836443235   -0.242120876    1.779700600
   5  H       1.00    2.836443235   -0.242120876   -1.779700600
   6  H       1.00   -4.040879135    1.289928224    0.000000000

 Bond lengths in Bohr (Angstrom)

 1-2  2.414513089  1-4  2.045560931  1-5  2.045560931  2-3  2.301914026  3-6  2.066542834
     ( 1.277705302)     ( 1.082464228)     ( 1.082464228)     ( 1.218120444)     ( 1.093567373)

 Bond angles

  1-2-3  172.67236630   2-1-4  119.53777769   2-1-5  119.53777769   2-3-6  118.22330183

  4-1-5  120.92439085

 NUCLEAR CHARGE:                   22
 NUMBER OF PRIMITIVE AOS:         102
 NUMBER OF SYMMETRY AOS:           99
 NUMBER OF CONTRACTIONS:           57   (   39A'  +   18A"  )
 NUMBER OF INNER CORE ORBITALS:     0   (    0A'  +    0A"  )
 NUMBER OF OUTER CORE ORBITALS:     3   (    3A'  +    0A"  )
 NUMBER OF VALENCE ORBITALS:       15   (   11A'  +    4A"  )


 NUCLEAR REPULSION ENERGY   61.10533246

 Eigenvalues of metric

         1 0.681E-02 0.724E-02 0.167E-01 0.217E-01 0.416E-01 0.453E-01 0.543E-01 0.605E-01
         2 0.273E-01 0.363E-01 0.107E+00 0.132E+00 0.193E+00 0.291E+00 0.362E+00 0.418E+00


 Contracted 2-electron integrals neglected if value below      1.0D-11
 AO integral compression algorithm  1   Integral accuracy      1.0D-11

     3.932 MB (compressed) written to integral file ( 59.1%)


 NUMBER OF SORTED TWO-ELECTRON INTEGRALS:     719436.     BUFFER LENGTH:  32768
 NUMBER OF SEGMENTS:   1  SEGMENT LENGTH:     719436      RECORD LENGTH: 524288

 Memory used in sort:       1.28 MW

 SORT1 READ      864024. AND WROTE      709377. INTEGRALS IN      3 RECORDS. CPU TIME:     0.01 SEC, REAL TIME:     0.10 SEC
 SORT2 READ      709377. AND WROTE      719436. INTEGRALS IN     15 RECORDS. CPU TIME:     0.04 SEC, REAL TIME:     0.05 SEC

 FILE SIZES:   FILE 1:    34.1 MBYTE,  FILE 4:    12.6 MBYTE,   TOTAL:     46.7 MBYTE

 OPERATOR DM      FOR CENTER  0  COORDINATES:    0.000000    0.000000    0.000000


 **********************************************************************************************************************************
 DATASETS  * FILE   NREC   LENGTH (MB)   RECORD NAMES
              1      19       31.81       500      610      700      900      950      970     1000      129      960     1100   
                                          VAR    BASINP    GEOM    SYMINP    ZMAT    AOBASIS   BASIS     P2S    ABASIS      S 
                                         1400     1410     1200     1210     1080     1600     1650     1300     1700   
                                           T        V       H0       H01     AOSYM     SMH    MOLCAS    ERIS     OPER   

 PROGRAMS   *        TOTAL       INT
 CPU TIMES  *         0.78      0.65
 REAL TIME  *         1.96 SEC
 DISK USED  *        44.99 MB
 **********************************************************************************************************************************


 Program * Restricted Hartree-Fock

 Orbital guess generated from atomic densities. Full valence occupancy:   14   4

 Initial occupancy:   9   2

 NELEC=   22   SYM=1   MS2= 0   THRE=1.0D-08   THRD=3.2D-06   THRG=3.2D-06  HFMA2=F  DIIS_START=2   DIIS_MAX=10   DIIS_INCORE=F

 Level shifts:    0.00 (CLOSED)    0.00 (OPEN)    0.30 (GAP_MIN)

 ITER           ETOT              DE          GRAD        DDIFF     DIIS  NEXP   TIME(IT)  TIME(TOT)  DIAG
   1     -131.79517480    -131.79517480     0.00D+00     0.19D+00     0     0       0.01      0.01    start
   2     -131.82052268      -0.02534788     0.75D-02     0.17D-01     1     0       0.01      0.02    diag
   3     -131.82635014      -0.00582746     0.40D-02     0.67D-02     2     0       0.00      0.02    diag
   4     -131.82881971      -0.00246957     0.17D-02     0.39D-02     3     0       0.01      0.03    diag
   5     -131.82942015      -0.00060044     0.64D-03     0.20D-02     4     0       0.01      0.04    diag
   6     -131.82958643      -0.00016628     0.37D-03     0.13D-02     5     0       0.00      0.04    diag
   7     -131.82959968      -0.00001324     0.11D-03     0.41D-03     6     0       0.01      0.05    diag
   8     -131.82960017      -0.00000049     0.26D-04     0.76D-04     7     0       0.01      0.06    fixocc
   9     -131.82960019      -0.00000003     0.61D-05     0.17D-04     8     0       0.00      0.06    diag
  10     -131.82960020      -0.00000000     0.18D-05     0.56D-05     9     0       0.01      0.07    diag/orth
  11     -131.82960020      -0.00000000     0.42D-06     0.15D-05     9     0       0.01      0.08    diag
  12     -131.82960020      -0.00000000     0.11D-06     0.26D-06     0     0       0.00      0.08    diag

 Final occupancy:   9   2

 !RHF STATE 1.1 Energy               -131.829600195823
  RHF One-electron energy            -297.990308396761
  RHF Two-electron energy             105.055375741137
  RHF Kinetic energy                  131.653078073119
  RHF Nuclear energy                   61.105332459801
  RHF Virial quotient                  -1.001340812728

 !RHF STATE 1.1 Dipole moment           0.55759254     0.58632160     0.00000000
 Dipole moment /Debye                   1.41725888     1.49028085     0.00000000

 Orbital energies:

           1.1          2.1          3.1          4.1          5.1          6.1          7.1          8.1          9.1         10.1
    -15.651998   -11.286895   -11.267763    -1.294675    -1.025265    -0.753288    -0.674009    -0.549818    -0.307823     0.136281

          11.1
      0.198142

           1.2          2.2          3.2          4.2
     -0.662255    -0.465990     0.155301     0.275104


 HOMO      9.1    -0.307823 =      -8.3763eV
 LUMO     10.1     0.136281 =       3.7084eV
 LUMO-HOMO         0.444104 =      12.0847eV

 Orbitals saved in record  2100.2


 **********************************************************************************************************************************
 DATASETS  * FILE   NREC   LENGTH (MB)   RECORD NAMES
              1      19       31.81       500      610      700      900      950      970     1000      129      960     1100   
                                          VAR    BASINP    GEOM    SYMINP    ZMAT    AOBASIS   BASIS     P2S    ABASIS      S 
                                         1400     1410     1200     1210     1080     1600     1650     1300     1700   
                                           T        V       H0       H01     AOSYM     SMH    MOLCAS    ERIS     OPER   

              2       4        0.49       700     1000      520     2100   
                                         GEOM     BASIS   MCVARS     RHF  

 PROGRAMS   *        TOTAL    HF-SCF       INT
 CPU TIMES  *         0.86      0.08      0.65
 REAL TIME  *         2.21 SEC
 DISK USED  *        44.99 MB
 **********************************************************************************************************************************


 PROGRAM * MP4 (Closed-shell)     Authors: C. Hampel, H.-J. Werner, 1991, M. Deegan, P.J. Knowles, 1992


 Convergence thresholds:  THRVAR = 1.00D-08  THRDEN = 1.00D-06

 MP4(T)     terms to be evaluated (factor= 0.000)


 Number of core orbitals:           3 (   3   0 )
 Number of closed-shell orbitals:   8 (   6   2 )
 Number of external orbitals:      46 (  30  16 )

 Molecular orbitals read from record     2100.2  Type=RHF/CANONICAL  

 Number of N-1 electron functions:               8
 Number of N-2 electron functions:              36
 Number of singly external CSFs:               212
 Number of doubly external CSFs:             34824
 Total number of CSFs:                       35037

 Length of J-op  integral file:               0.00 MB
 Length of K-op  integral file:               0.19 MB

 Memory could be reduced to 0.67 Mwords without degradation in triples

 Integral transformation finished. Total CPU:   0.02 sec, npass=  1  Memory used:   0.36 MW

 Reference energy:                   -131.82960020

                        CORR.ENERGY   TOTAL ENERGY   ENERGY CHANGE
 MP2:                   -0.42684292  -132.25644311    -0.42684292

 SCS-MP2 correlation energy:           -0.41942018   (PS=  1.200000  PT=  0.333333)
 SCS-MP2 total energy:               -132.24902038

 MP3(D):                -0.44412066  -132.27372085    -0.01727774
 MP4(DQ):               -0.44615522  -132.27575542    -0.00203457
 MP4(SDQ):              -0.45271814  -132.28231833    -0.00656291

 Norm of t1 vector:      0.08679502      S-energy:    -0.00656291      T1 diagnostic:  0.01534334


 Total CPU time for triples:      0.19 sec


 RESULTS
 =======

  Reference energy                   -131.829600195823
  MP4(SDQ) singlet pair energy         -0.298426104886
  MP4(SDQ) triplet pair energy         -0.147729119929
  MP4(SDQ) correlation energy          -0.452718139060

  Triples contribution                 -0.019385777202
  Total correlation energy             -0.472103916262

  MP4(SDQ) total energy              -132.282318334883
 !MP4(SDTQ) total energy             -132.301704112085

 Timing summary (sec):

 STEP                 CPU(USER)    SYS     CPU(TOT)    WALL
 Transformation          0.03      0.01      0.04      0.15
 CCSD iterations         1.19      0.01      1.20      0.09
 Triples                 0.19      0.01      0.20      0.20

 Program statistics:

 Available memory in ccsd:               805306103
 Min. memory needed in ccsd:                121196
 Max. memory used in ccsd:                  146794
 Max. memory used in cckext:                194810 ( 1 integral passes)



 **********************************************************************************************************************************
 DATASETS  * FILE   NREC   LENGTH (MB)   RECORD NAMES
              1      20       34.09       500      610      700      900      950      970     1000      129      960     1100   
                                          VAR    BASINP    GEOM    SYMINP    ZMAT    AOBASIS   BASIS     P2S    ABASIS      S 
                                         1400     1410     1200     1210     1080     1600     1650     1300     1700     1380   
                                           T        V       H0       H01     AOSYM     SMH    MOLCAS    ERIS     OPER     JKOP   

              2       4        0.49       700     1000      520     2100   
                                         GEOM     BASIS   MCVARS     RHF  

 PROGRAMS   *        TOTAL       MP4    HF-SCF       INT
 CPU TIMES  *         1.20      0.33      0.08      0.65
 REAL TIME  *         2.70 SEC
 DISK USED  *        44.99 MB
 **********************************************************************************************************************************

 Dump information in style XML to xml output                                                                      

 Orbitals will not be exported.

 **********************************************************************************************************************************

 MP4/cc-pVDZ energy=   -132.301704112085

             MP4          HF-SCF
   -132.30170411   -131.82960020
 **********************************************************************************************************************************
 Molpro calculation terminated
