
 Working directory              : /home/jovyan/scratch/molpro.um6RP8Hocz/
 Global scratch directory       : /home/jovyan/scratch/molpro.um6RP8Hocz/
 Wavefunction directory         : /home/jovyan/wfu/
 Main file repository           : /home/jovyan/scratch/molpro.um6RP8Hocz/

 id        : cardiff

 Nodes                nprocs
 jupyter-c-2efrancisan    1
 GA implementation: MPI file
 GA implementation (serial work in mppx): MPI file

 Using customized tuning parameters: mindgm=1; mindgv=20; mindgc=4; mindgr=1; noblas=0; minvec=7
 default implementation of scratch files=df  


 Variables initialized (1031), CPU time= 0.00 sec
 
 
 
 geometry={
           13
     C         -1.15652361      2.93352478      1.38638873
     H         -1.85899517      3.64036578      1.84778981
     H         -0.88476369      3.31466237      0.39188227
     H         -0.25010039      2.90547455      2.00563584
     C         -1.78583109      1.53234273      1.27366635
     H         -2.67209324      1.57854710      0.61845852
     H         -1.07752237      0.85015202      0.77388167
     C         -2.16996609      0.96729694      2.56450663
     C         -2.47846590      0.52534993      3.65250700
     C         -2.85195129     -0.01527234      4.95275370
     H         -2.42391460     -1.01780635      5.10694049
     H         -2.49335749      0.62859056      5.77043736
     H         -3.94494133     -0.10110164      5.05177549
 }
 basis=cc-pVTZ
 angstrom
 
 
 hf; ccsd
 
 
 
 {put,xml;noorbitals,nobasis}
 Commands initialized (841), CPU time= 0.00 sec, 704 directives.
 Default parameters read. Elapsed time= 0.08 sec

 Checking input...
 Passed
1


                                         ***  PROGRAM SYSTEM MOLPRO  ***
                                       Copyright, TTI GmbH Stuttgart, 2015
                                    Version 2023.1 linked Mon Jun  5 13:27:10 2023


 **********************************************************************************************************************************
 LABEL *                                                                                                                                                                 
  (16 PROC) 64 bit serial version                                                        DATE: 03-Aug-23          TIME: 17:55:33  
 **********************************************************************************************************************************

 SHA1:             9738a14712571edd23541b6d7c4f3a3d766f8287
 **********************************************************************************************************************************

 Memory per process:       805 MW
 Total memory per node:   1074 MW
 Total GA space:           268 MW

 GA preallocation disabled
 GA check enabled

 Geometry recognized as XYZ


 Variable memory set to 805.3 MW

 SETTING BASIS          =    CC-PVTZ


 Recomputing integrals since basis changed


 Using spherical harmonics

 Library entry C      S cc-pVTZ              selected for orbital group  1
 Library entry C      P cc-pVTZ              selected for orbital group  1
 Library entry C      D cc-pVTZ              selected for orbital group  1
 Library entry C      F cc-pVTZ              selected for orbital group  1
 Library entry H      S cc-pVTZ              selected for orbital group  2
 Library entry H      P cc-pVTZ              selected for orbital group  2
 Library entry H      D cc-pVTZ              selected for orbital group  2


 PROGRAM * SEWARD (Integral evaluation for generally contracted gaussian basis sets)     Author: Roland Lindh, 1990

 Geometry written to block  1 of record 700


 Point group  C1  



 ATOMIC COORDINATES

 NR  ATOM    CHARGE       X              Y              Z

   1  C       6.00   -2.185512880    5.543558414    2.619895002
   2  H       1.00   -3.512991738    6.879294318    3.491816677
   3  H       1.00   -1.671961059    6.263804075    0.740550163
   4  H       1.00   -0.472621241    5.490551162    3.790102443
   5  C       6.00   -3.374731665    2.895708089    2.406880576
   6  H       1.00   -5.049524403    2.983021694    1.168717222
   7  H       1.00   -2.036222172    1.606554482    1.462424409
   8  C       6.00   -4.100641610    1.827926298    4.846215175
   9  C       6.00   -4.683621760    0.992767487    6.902237898
  10  C       6.00   -5.389406859   -0.028860540    9.359348056
  11  H       1.00   -4.580534743   -1.923375249    9.650718861
  12  H       1.00   -4.711762787    1.187864003   10.904546230
  13  H       1.00   -7.454858691   -0.191054410    9.546472119

 Bond lengths in Bohr (Angstrom)

 1-2  2.075244066  1-3  2.077119714  1-4  2.075136861  1-5  2.910451479  5-6  2.084610964
     ( 1.098171867)     ( 1.099164417)     ( 1.098115136)     ( 1.540144596)     ( 1.103128616)

  5- 7  2.084591599   5- 8  2.759974002   8- 9  2.294468464   9-10  2.753043181  10-11  2.080470387
       ( 1.103118368)       ( 1.460515344)       ( 1.214180422)       ( 1.456847712)       ( 1.100937517)

 10-12  2.080206119  10-13  2.080243625
       ( 1.100797672)       ( 1.100817519)

 Bond angles

  1-5-6  109.48987163   1-5-7  109.47643318   1-5-8  113.25071324   2-1-3  108.36775526

  2-1-4  107.90973990   2-1-5  110.79074886   3-1-4  108.36075804   3-1-5  110.50376687

  4-1-5  110.81238094   5-8-9  178.42664079   6-5-7  105.82308721   6-5-8  109.25961989

  7- 5- 8  109.27214153   8- 9-10  179.52607448   9-10-11  111.29960106   9-10-12  111.24748528

  9-10-13  111.33126571  11-10-12  107.57431964  11-10-13  107.60365334  12-10-13  107.59148141

 NUCLEAR CHARGE:                   38
 NUMBER OF PRIMITIVE AOS:         371
 NUMBER OF SYMMETRY AOS:          338
 NUMBER OF CONTRACTIONS:          262   (  262A   )
 NUMBER OF INNER CORE ORBITALS:     0   (    0A   )
 NUMBER OF OUTER CORE ORBITALS:     5   (    5A   )
 NUMBER OF VALENCE ORBITALS:       28   (   28A   )


 NUCLEAR REPULSION ENERGY  150.03460581


 Eigenvalues of metric

         1 0.153E-04 0.253E-03 0.613E-03 0.813E-03 0.119E-02 0.123E-02 0.140E-02 0.143E-02


 Contracted 2-electron integrals neglected if value below      1.0D-12
 AO integral compression algorithm  1   Integral accuracy      1.0D-12

     1944.846 MB (compressed) written to integral file ( 41.9%)


 NUMBER OF SORTED TWO-ELECTRON INTEGRALS:  593521831.     BUFFER LENGTH:  32768
 NUMBER OF SEGMENTS:  38  SEGMENT LENGTH:   15999762      RECORD LENGTH: 262144

 Memory used in sort:      16.29 MW

 SORT1 READ   580452379. AND WROTE   447915254. INTEGRALS IN   2583 RECORDS. CPU TIME:     7.30 SEC, REAL TIME:    14.48 SEC
 SORT2 READ   447915254. AND WROTE   593521831. INTEGRALS IN   7419 RECORDS. CPU TIME:     7.77 SEC, REAL TIME:    15.38 SEC

 FILE SIZES:   FILE 1:  1977.6 MBYTE,  FILE 4:  5417.0 MBYTE,   TOTAL:   7394.6 MBYTE

 OPERATOR DM      FOR CENTER  0  COORDINATES:    0.000000    0.000000    0.000000


 **********************************************************************************************************************************
 DATASETS  * FILE   NREC   LENGTH (MB)   RECORD NAMES
              1      19     1731.10       500      610      700      900      950      970     1000      129      960     1100   
                                          VAR    BASINP    GEOM    SYMINP    ZMAT    AOBASIS   BASIS     P2S    ABASIS      S 
                                         1400     1410     1200     1210     1080     1600     1650     1300     1700   
                                           T        V       H0       H01     AOSYM     SMH    MOLCAS    ERIS     OPER   

 PROGRAMS   *        TOTAL       INT
 CPU TIMES  *        45.52     45.39
 REAL TIME  *        73.55 SEC
 DISK USED  *         6.89 GB
 **********************************************************************************************************************************


 Program * Restricted Hartree-Fock

 Orbital guess generated from atomic densities. Full valence occupancy:   33

 Initial occupancy:  19

 NELEC=   38   SYM=1   MS2= 0   THRE=1.0D-08   THRD=3.2D-06   THRG=3.2D-06  HFMA2=F  DIIS_START=2   DIIS_MAX=10   DIIS_INCORE=F

 Level shifts:    0.00 (CLOSED)    0.00 (OPEN)    0.30 (GAP_MIN)

 ITER           ETOT              DE          GRAD        DDIFF     DIIS  NEXP   TIME(IT)  TIME(TOT)  DIAG
   1     -193.94840636    -193.94840636     0.00D+00     0.45D-01     0     0       6.21     12.12    start
   2     -194.00288586      -0.05447950     0.28D-02     0.42D-02     1     0       6.31     18.43    diag
   3     -194.00928502      -0.00639916     0.10D-02     0.14D-02     2     0       6.16     24.59    diag
   4     -194.01032828      -0.00104326     0.33D-03     0.54D-03     3     0       6.23     30.82    diag
   5     -194.01037485      -0.00004657     0.89D-04     0.16D-03     4     0       6.17     36.99    diag
   6     -194.01038619      -0.00001133     0.47D-04     0.59D-04     5     0       6.13     43.12    diag
   7     -194.01038649      -0.00000030     0.61D-05     0.14D-04     6     0       6.10     49.22    diag
   8     -194.01038652      -0.00000003     0.18D-05     0.38D-05     7     0       6.13     55.35    fixocc
   9     -194.01038652      -0.00000001     0.53D-06     0.14D-05     8     0       6.21     61.56    diag
  10     -194.01038653      -0.00000000     0.23D-06     0.39D-06     0     0       6.23     67.79    diag/orth

 Final occupancy:  19

 !RHF STATE 1.1 Energy               -194.010386525445
  RHF One-electron energy            -557.368649744117
  RHF Two-electron energy             213.323657405128
  RHF Kinetic energy                  193.604441778342
  RHF Nuclear energy                  150.034605813544
  RHF Virial quotient                  -1.002096773934

 !RHF STATE 1.1 Dipole moment           0.00988136     0.02488595     0.01950825
 Dipole moment /Debye                   0.02511591     0.06325378     0.04958503

 Orbital energies:

           1.1          2.1          3.1          4.1          5.1          6.1          7.1          8.1          9.1         10.1
    -11.247993   -11.244485   -11.222865   -11.218072   -11.213644    -1.072918    -1.024557    -0.938686    -0.856949    -0.659073

          11.1         12.1         13.1         14.1         15.1         16.1         17.1         18.1         19.1         20.1
     -0.617495    -0.610229    -0.579743    -0.577946    -0.540463    -0.515279    -0.504395    -0.358341    -0.357525     0.137574

          21.1
      0.151605


 HOMO     19.1    -0.357525 =      -9.7287eV
 LUMO     20.1     0.137574 =       3.7436eV
 LUMO-HOMO         0.495099 =      13.4723eV

 Orbitals saved in record  2100.2


 **********************************************************************************************************************************
 DATASETS  * FILE   NREC   LENGTH (MB)   RECORD NAMES
              1      19     1731.10       500      610      700      900      950      970     1000      129      960     1100   
                                          VAR    BASINP    GEOM    SYMINP    ZMAT    AOBASIS   BASIS     P2S    ABASIS      S 
                                         1400     1410     1200     1210     1080     1600     1650     1300     1700   
                                           T        V       H0       H01     AOSYM     SMH    MOLCAS    ERIS     OPER   

              2       4        1.67       700     1000      520     2100   
                                         GEOM     BASIS   MCVARS     RHF  

 PROGRAMS   *        TOTAL    HF-SCF       INT
 CPU TIMES  *       113.31     67.79     45.39
 REAL TIME  *       208.77 SEC
 DISK USED  *         6.89 GB
 **********************************************************************************************************************************


 PROGRAM * CCSD (Closed-shell coupled cluster)     Authors: C. Hampel, H.-J. Werner, 1991, M. Deegan, P.J. Knowles, 1992


 Convergence thresholds:  THRVAR = 1.00D-08  THRDEN = 1.00D-06

 Number of core orbitals:           5 (   5 )
 Number of closed-shell orbitals:  14 (  14 )
 Number of external orbitals:     243 ( 243 )

 Molecular orbitals read from record     2100.2  Type=RHF/CANONICAL  

 Number of N-1 electron functions:              14
 Number of N-2 electron functions:             105
 Number of singly external CSFs:              3402
 Number of doubly external CSFs:           5788503
 Total number of CSFs:                     5791906

 Length of J-op  integral file:               0.00 MB
 Length of K-op  integral file:               4.78 MB
 Length of 3-ext integral record:             0.00 MB

 Integral transformation finished. Total CPU:  34.54 sec, npass=  1  Memory used: 148.78 MW

 Reference energy:                   -194.01038653

 MP2 singlet pair energy:              -0.54638934
 MP2 triplet pair energy:              -0.28394061
 MP2 correlation energy:               -0.83032995
 MP2 total energy:                   -194.84071647

 SCS-MP2 correlation energy:           -0.83234136   (PS=  1.200000  PT=  0.333333)
 SCS-MP2 total energy:               -194.84272789

 ITER.      SQ.NORM     CORR.ENERGY   TOTAL ENERGY   ENERGY CHANGE        DEN1      VAR(S)    VAR(P)  DIIS     TIME  TIME/IT
   1      1.29125632    -0.86787354  -194.87826006    -0.03754359    -0.01399956  0.35D-02  0.53D-02  1  1   208.94    78.76
   2      1.31225506    -0.87093073  -194.88131726    -0.00305719    -0.02120148  0.55D-04  0.69D-03  2  2   272.70    72.46
   3      1.32012784    -0.87112387  -194.88151040    -0.00019314    -0.00449995  0.18D-04  0.54D-04  3  3   344.70    73.45
   4      1.32272612    -0.87123624  -194.88162276    -0.00011237    -0.00099278  0.12D-05  0.69D-05  4  4   415.20    73.60
   5      1.32336831    -0.87124358  -194.88163010    -0.00000734    -0.00017857  0.10D-06  0.91D-06  5  5   486.92    73.99
   6      1.32352905    -0.87123927  -194.88162580     0.00000431    -0.00003545  0.12D-07  0.71D-07  6  6   554.15    73.32
   7      1.32355082    -0.87124035  -194.88162688    -0.00000108    -0.00000292  0.15D-08  0.59D-08  6  2   622.69    73.05
   8      1.32355430    -0.87124033  -194.88162686     0.00000002    -0.00000047  0.21D-09  0.50D-09  6  1   689.53    72.54
   9      1.32355489    -0.87124051  -194.88162703    -0.00000018     0.00000018  0.34D-10  0.42D-10  6  3   757.42    72.27

 Norm of t1 vector:      0.07652658      S-energy:     0.00000012      T1 diagnostic:  0.01022629
                                                                       D1 diagnostic:  0.02712712
                                                                       D2 diagnostic:  0.17807785 (internal)


 RESULTS
 =======

  Reference energy                   -194.010386525445
  CCSD singlet pair energy             -0.614250507412
  CCSD triplet pair energy             -0.256990118986
  CCSD correlation energy              -0.871240507769

 !CCSD total energy                  -194.881627033214

 Timing summary (sec):

 STEP                 CPU(USER)    SYS     CPU(TOT)    WALL
 Transformation         35.17      2.21     37.38     40.00
 CCSD iterations       722.92     13.23    736.15    651.23

 Program statistics:

 Available memory in ccsd:               805305565
 Min. memory needed in ccsd:              14535538
 Max. memory used in ccsd:                19778069
 Max. memory used in cckext:              15061820 ( 9 integral passes)



 **********************************************************************************************************************************
 DATASETS  * FILE   NREC   LENGTH (MB)   RECORD NAMES
              1      20     2584.21       500      610      700      900      950      970     1000      129      960     1100   
                                          VAR    BASINP    GEOM    SYMINP    ZMAT    AOBASIS   BASIS     P2S    ABASIS      S 
                                         1400     1410     1200     1210     1080     1600     1650     1300     1700     1380   
                                           T        V       H0       H01     AOSYM     SMH    MOLCAS    ERIS     OPER     JKOP   

              2       4        1.67       700     1000      520     2100   
                                         GEOM     BASIS   MCVARS     RHF  

 PROGRAMS   *        TOTAL      CCSD    HF-SCF       INT
 CPU TIMES  *       757.79    644.47     67.79     45.39
 REAL TIME  *       900.13 SEC
 DISK USED  *         6.89 GB
 **********************************************************************************************************************************

 Dump information in style XML to xml output                                                                      

 Orbitals will not be exported.

 **********************************************************************************************************************************

 CCSD/cc-pVTZ energy=   -194.881627033214

            CCSD          HF-SCF
   -194.88162703   -194.01038653
 **********************************************************************************************************************************
 Molpro calculation terminated
