
 Working directory              : /home/jovyan/scratch/molpro.18g8xjQBwq/
 Global scratch directory       : /home/jovyan/scratch/molpro.18g8xjQBwq/
 Wavefunction directory         : /home/jovyan/wfu/
 Main file repository           : /home/jovyan/scratch/molpro.18g8xjQBwq/

 id        : cardiff

 Nodes                nprocs
 jupyter-c-2efrancisan    1
 GA implementation: MPI file
 GA implementation (serial work in mppx): MPI file

 Using customized tuning parameters: mindgm=1; mindgv=20; mindgc=4; mindgr=1; noblas=0; minvec=7
 default implementation of scratch files=df  


 Variables initialized (1031), CPU time= 0.00 sec
 
 
 
 geometry={
 8
  C     0.0000000    0.0000000   -0.7636815
  C     0.0000000    0.0000000    0.7636815
  H     1.0087494    0.0000000   -1.1676039
  H    -0.5043747   -0.8736026   -1.1676039
  H    -0.5043747    0.8736026   -1.1676039
  H     1.0087494    0.0000000    1.1676039
  H    -0.5043747    0.8736026    1.1676039
  H    -0.5043747   -0.8736026    1.1676039
 }
 basis=cc-pVDZ
 angstrom
 
 
 hf; mp2
 
 
 
 {put,xml;noorbitals,nobasis}
 Commands initialized (841), CPU time= 0.01 sec, 704 directives.
 Default parameters read. Elapsed time= 0.07 sec

 Checking input...
 Passed
1


                                         ***  PROGRAM SYSTEM MOLPRO  ***
                                       Copyright, TTI GmbH Stuttgart, 2015
                                    Version 2023.1 linked Mon Jun  5 13:27:10 2023


 **********************************************************************************************************************************
 LABEL *                                                                                                                                                                 
  (16 PROC) 64 bit serial version                                                        DATE: 03-Aug-23          TIME: 10:27:03  
 **********************************************************************************************************************************

 SHA1:             9738a14712571edd23541b6d7c4f3a3d766f8287
 **********************************************************************************************************************************

 Memory per process:       805 MW
 Total memory per node:   1074 MW
 Total GA space:           268 MW

 GA preallocation disabled
 GA check enabled

 Geometry recognized as XYZ


 Variable memory set to 805.3 MW

 SETTING BASIS          =    CC-PVDZ


 Recomputing integrals since basis changed


 Using spherical harmonics

 Library entry C      S cc-pVDZ              selected for orbital group  1
 Library entry C      P cc-pVDZ              selected for orbital group  1
 Library entry C      D cc-pVDZ              selected for orbital group  1
 Library entry H      S cc-pVDZ              selected for orbital group  2
 Library entry H      P cc-pVDZ              selected for orbital group  2


 PROGRAM * SEWARD (Integral evaluation for generally contracted gaussian basis sets)     Author: Roland Lindh, 1990

 Geometry written to block  1 of record 700


 Point group  C2v 



 ATOMIC COORDINATES

 NR  ATOM    CHARGE       X              Y              Z

   1  C       6.00    0.000000000    0.000000000   -1.443148881
   2  C       6.00    0.000000000    0.000000000    1.443148881
   3  H       1.00    1.906260094    0.000000000   -2.206451593
   4  H       1.00    1.906260094    0.000000000    2.206451593
   5  H       1.00   -0.953130047   -1.650869656   -2.206451593
   6  H       1.00   -0.953130047    1.650869656   -2.206451593
   7  H       1.00   -0.953130047    1.650869656    2.206451593
   8  H       1.00   -0.953130047   -1.650869656    2.206451593

 Bond lengths in Bohr (Angstrom)

 1-2  2.886297763  1-3  2.053401709  1-5  2.053401699  1-6  2.053401699  2-4  2.053401709
     ( 1.527363000)     ( 1.086613389)     ( 1.086613384)     ( 1.086613384)     ( 1.086613389)

 2-7  2.053401699  2-8  2.053401699
     ( 1.086613384)     ( 1.086613384)

 Bond angles

  1-2-4  111.82210085   1-2-7  111.82210096   1-2-8  111.82210096   2-1-3  111.82210085

  2-1-5  111.82210096   2-1-6  111.82210096   3-1-5  107.02145142   3-1-6  107.02145142

  4-2-7  107.02145142   4-2-8  107.02145142   5-1-6  107.02145093   7-2-8  107.02145093

 NUCLEAR CHARGE:                   18
 NUMBER OF PRIMITIVE AOS:          96
 NUMBER OF SYMMETRY AOS:           94
 NUMBER OF CONTRACTIONS:           58   (   19A1  +   10B1  +   19B2  +   10A2  )
 NUMBER OF INNER CORE ORBITALS:     0   (    0A1  +    0B1  +    0B2  +    0A2  )
 NUMBER OF OUTER CORE ORBITALS:     2   (    1A1  +    0B1  +    1B2  +    0A2  )
 NUMBER OF VALENCE ORBITALS:       14   (    5A1  +    2B1  +    5B2  +    2A2  )


 NUCLEAR REPULSION ENERGY   42.33358783


 Eigenvalues of metric

         1 0.141E-01 0.391E-01 0.481E-01 0.706E-01 0.110E+00 0.141E+00 0.146E+00 0.367E+00
         2 0.391E-01 0.706E-01 0.146E+00 0.367E+00 0.708E+00 0.906E+00 0.111E+01 0.151E+01
         3 0.515E-02 0.266E-01 0.317E-01 0.335E-01 0.499E-01 0.105E+00 0.110E+00 0.146E+00
         4 0.266E-01 0.335E-01 0.110E+00 0.253E+00 0.380E+00 0.905E+00 0.109E+01 0.110E+01


 Contracted 2-electron integrals neglected if value below      1.0D-11
 AO integral compression algorithm  1   Integral accuracy      1.0D-11

     2.884 MB (compressed) written to integral file ( 59.5%)


 NUMBER OF SORTED TWO-ELECTRON INTEGRALS:     390445.     BUFFER LENGTH:  32768
 NUMBER OF SEGMENTS:   1  SEGMENT LENGTH:     390445      RECORD LENGTH: 524288

 Memory used in sort:       0.95 MW

 SORT1 READ      584216. AND WROTE      375239. INTEGRALS IN      2 RECORDS. CPU TIME:     0.01 SEC, REAL TIME:     0.04 SEC
 SORT2 READ      375239. AND WROTE      390445. INTEGRALS IN     11 RECORDS. CPU TIME:     0.03 SEC, REAL TIME:     0.04 SEC

 FILE SIZES:   FILE 1:    33.1 MBYTE,  FILE 4:     8.5 MBYTE,   TOTAL:     41.5 MBYTE

 OPERATOR DM      FOR CENTER  0  COORDINATES:    0.000000    0.000000    0.000000


 **********************************************************************************************************************************
 DATASETS  * FILE   NREC   LENGTH (MB)   RECORD NAMES
              1      19       30.57       500      610      700      900      950      970     1000      129      960     1100   
                                          VAR    BASINP    GEOM    SYMINP    ZMAT    AOBASIS   BASIS     P2S    ABASIS      S 
                                         1400     1410     1200     1210     1080     1600     1650     1300     1700   
                                           T        V       H0       H01     AOSYM     SMH    MOLCAS    ERIS     OPER   

 PROGRAMS   *        TOTAL       INT
 CPU TIMES  *         0.72      0.59
 REAL TIME  *         1.65 SEC
 DISK USED  *        40.04 MB
 **********************************************************************************************************************************


 Program * Restricted Hartree-Fock

 Orbital guess generated from atomic densities. Full valence occupancy:    6   2   6   2

 Initial occupancy:   4   1   3   1

 NELEC=   18   SYM=1   MS2= 0   THRE=1.0D-08   THRD=3.2D-06   THRG=3.2D-06  HFMA2=F  DIIS_START=2   DIIS_MAX=10   DIIS_INCORE=F

 Level shifts:    0.00 (CLOSED)    0.00 (OPEN)    0.30 (GAP_MIN)

 ITER           ETOT              DE          GRAD        DDIFF     DIIS  NEXP   TIME(IT)  TIME(TOT)  DIAG
   1      -79.19934956     -79.19934956     0.00D+00     0.24D+00     0     0       0.01      0.01    start
   2      -79.22573391      -0.02638435     0.12D-01     0.25D-01     1     0       0.00      0.01    diag
   3      -79.22901503      -0.00328112     0.47D-02     0.91D-02     2     0       0.00      0.01    diag
   4      -79.22949318      -0.00047815     0.14D-02     0.31D-02     3     0       0.00      0.01    diag
   5      -79.22949922      -0.00000604     0.15D-03     0.50D-03     4     0       0.01      0.02    diag
   6      -79.22949928      -0.00000006     0.14D-04     0.54D-04     5     0       0.00      0.02    diag
   7      -79.22949928      -0.00000000     0.16D-05     0.43D-05     6     0       0.00      0.02    diag
   8      -79.22949928      -0.00000000     0.26D-06     0.91D-06     7     0       0.01      0.03    fixocc
   9      -79.22949928      -0.00000000     0.23D-07     0.57D-07     0     0       0.00      0.03    diag

 Final occupancy:   4   1   3   1

 !RHF STATE 1.1 Energy                -79.229499276643
  RHF One-electron energy            -189.206671879107
  RHF Two-electron energy              67.643584777324
  RHF Kinetic energy                   79.162041166487
  RHF Nuclear energy                   42.333587825140
  RHF Virial quotient                  -1.000852152233

 !RHF STATE 1.1 Dipole moment          -0.00000001     0.00000000     0.00000000
 Dipole moment /Debye                  -0.00000002     0.00000000     0.00000000

 Orbital energies:

           1.1          2.1          3.1          4.1          5.1          6.1
    -11.215488    -1.017655    -0.595555    -0.511006     0.187799     0.236998

           1.2          2.2          3.2
     -0.595555     0.236998     0.582712

           1.3          2.3          3.3          4.3          5.3
    -11.214909    -0.844502    -0.482541     0.234777     0.323549

           1.4          2.4          3.4
     -0.482541     0.323549     0.745465


 HOMO      1.4    -0.482541 =     -13.1306eV
 LUMO      5.1     0.187799 =       5.1103eV
 LUMO-HOMO         0.670340 =      18.2409eV

 Orbitals saved in record  2100.2


 **********************************************************************************************************************************
 DATASETS  * FILE   NREC   LENGTH (MB)   RECORD NAMES
              1      19       30.57       500      610      700      900      950      970     1000      129      960     1100   
                                          VAR    BASINP    GEOM    SYMINP    ZMAT    AOBASIS   BASIS     P2S    ABASIS      S 
                                         1400     1410     1200     1210     1080     1600     1650     1300     1700   
                                           T        V       H0       H01     AOSYM     SMH    MOLCAS    ERIS     OPER   

              2       4        0.51       700     1000      520     2100   
                                         GEOM     BASIS   MCVARS     RHF  

 PROGRAMS   *        TOTAL    HF-SCF       INT
 CPU TIMES  *         0.75      0.03      0.59
 REAL TIME  *         1.77 SEC
 DISK USED  *        40.04 MB
 **********************************************************************************************************************************


 PROGRAM * MP2 (Closed-shell)     Authors: C. Hampel, H.-J. Werner, 1991, M. Deegan, P.J. Knowles, 1992


 Convergence thresholds:  THRVAR = 1.00D-08  THRDEN = 1.00D-06

 Number of core orbitals:           2 (   1   0   1   0 )
 Number of closed-shell orbitals:   7 (   3   1   2   1 )
 Number of external orbitals:      49 (  15   9  16   9 )

 Molecular orbitals read from record     2100.2  Type=RHF/CANONICAL  

 Number of N-1 electron functions:               7
 Number of N-2 electron functions:              28
 Number of singly external CSFs:                95
 Number of doubly external CSFs:             15068
 Total number of CSFs:                       15164

 Length of J-op  integral file:               0.00 MB
 Length of K-op  integral file:               0.13 MB

 Integral transformation finished. Total CPU:   0.00 sec, npass=  1  Memory used:   0.08 MW

 Memory needed for MP2:                      0.00 MW

 SCS-MP2 correlation energy:           -0.307884056948   (PS=  1.200000  PT=  0.333333)
 SCS-MP2 total energy:                -79.537383333591


  Reference energy                    -79.229499276643
  MP2 singlet pair energy              -0.207911943321
  MP2 triplet pair energy              -0.093840629405
  MP2 correlation energy               -0.301752572726

 !MP2 total energy                    -79.531251849369


 **********************************************************************************************************************************
 DATASETS  * FILE   NREC   LENGTH (MB)   RECORD NAMES
              1      20       30.87       500      610      700      900      950      970     1000      129      960     1100   
                                          VAR    BASINP    GEOM    SYMINP    ZMAT    AOBASIS   BASIS     P2S    ABASIS      S 
                                         1400     1410     1200     1210     1080     1600     1650     1300     1700     1380   
                                           T        V       H0       H01     AOSYM     SMH    MOLCAS    ERIS     OPER     JKOP   

              2       4        0.51       700     1000      520     2100   
                                         GEOM     BASIS   MCVARS     RHF  

 PROGRAMS   *        TOTAL       MP2    HF-SCF       INT
 CPU TIMES  *         0.81      0.06      0.03      0.59
 REAL TIME  *         1.88 SEC
 DISK USED  *        40.04 MB
 **********************************************************************************************************************************

 Dump information in style XML to xml output                                                                      

 Orbitals will not be exported.

 **********************************************************************************************************************************

 MP2/cc-pVDZ energy=    -79.531251849369

             MP2          HF-SCF
    -79.53125185    -79.22949928
 **********************************************************************************************************************************
 Molpro calculation terminated
