
 Working directory              : /home/jovyan/scratch/molpro.o6VA87ZPkR/
 Global scratch directory       : /home/jovyan/scratch/molpro.o6VA87ZPkR/
 Wavefunction directory         : /home/jovyan/wfu/
 Main file repository           : /home/jovyan/scratch/molpro.o6VA87ZPkR/

 id        : cardiff

 Nodes                nprocs
 jupyter-c-2efrancisan    1
 GA implementation: MPI file
 GA implementation (serial work in mppx): MPI file

 Using customized tuning parameters: mindgm=1; mindgv=20; mindgc=4; mindgr=1; noblas=0; minvec=7
 default implementation of scratch files=df  


 Variables initialized (1031), CPU time= 0.01 sec
 
 
 
 geometry={
 4
  2HF (cyc) (Full point group Cs)
  H 0.147515 0.503025 0.000000
  F 0.037922 -1.303125 0.000000
  F 0.037922 1.428195 0.000000
  H -0.830110 -1.628660 0.000000
 }
 basis=cc-pVDZ
 angstrom
 
 
 hf; ccsd(t)
 
 
 
 {put,xml;noorbitals,nobasis}
 Commands initialized (841), CPU time= 0.01 sec, 704 directives.
 Default parameters read. Elapsed time= 0.10 sec

 Checking input...
 Passed
1


                                         ***  PROGRAM SYSTEM MOLPRO  ***
                                       Copyright, TTI GmbH Stuttgart, 2015
                                    Version 2023.1 linked Mon Jun  5 13:27:10 2023


 **********************************************************************************************************************************
 LABEL *                                                                                                                                                                 
  (16 PROC) 64 bit serial version                                                        DATE: 03-Aug-23          TIME: 13:57:05  
 **********************************************************************************************************************************

 SHA1:             9738a14712571edd23541b6d7c4f3a3d766f8287
 **********************************************************************************************************************************

 Memory per process:       805 MW
 Total memory per node:   1074 MW
 Total GA space:           268 MW

 GA preallocation disabled
 GA check enabled

 Geometry recognized as XYZ


 Variable memory set to 805.3 MW

 SETTING BASIS          =    CC-PVDZ


 Recomputing integrals since basis changed


 Using spherical harmonics

 Library entry H      S cc-pVDZ              selected for orbital group  1
 Library entry H      P cc-pVDZ              selected for orbital group  1
 Library entry F      S cc-pVDZ              selected for orbital group  2
 Library entry F      P cc-pVDZ              selected for orbital group  2
 Library entry F      D cc-pVDZ              selected for orbital group  2


 PROGRAM * SEWARD (Integral evaluation for generally contracted gaussian basis sets)     Author: Roland Lindh, 1990

 Geometry written to block  1 of record 700


 Point group  Cs  



 ATOMIC COORDINATES

 NR  ATOM    CHARGE       X              Y              Z

   1  H       1.00    0.278762949    0.950579484    0.000000000
   2  F       9.00    0.071662194   -2.462549356    0.000000000
   3  F       9.00    0.071662194    2.698897403    0.000000000
   4  H       1.00   -1.568680553   -3.077721350    0.000000000

 Bond lengths in Bohr (Angstrom)

 1-3  1.760541470  2-4  1.751902084
     ( 0.931638425)     ( 0.927066658)

 NUCLEAR CHARGE:                   20
 NUMBER OF PRIMITIVE AOS:          68
 NUMBER OF SYMMETRY AOS:           66
 NUMBER OF CONTRACTIONS:           38   (   28A'  +   10A"  )
 NUMBER OF INNER CORE ORBITALS:     0   (    0A'  +    0A"  )
 NUMBER OF OUTER CORE ORBITALS:     2   (    2A'  +    0A"  )
 NUMBER OF VALENCE ORBITALS:       10   (    8A'  +    2A"  )


 NUCLEAR REPULSION ENERGY   30.29904319


 Eigenvalues of metric

         1 0.227E-01 0.239E-01 0.494E-01 0.548E-01 0.151E+00 0.184E+00 0.189E+00 0.193E+00
         2 0.192E+00 0.194E+00 0.624E+00 0.646E+00 0.100E+01 0.100E+01 0.111E+01 0.112E+01


 Contracted 2-electron integrals neglected if value below      1.0D-11
 AO integral compression algorithm  1   Integral accuracy      1.0D-11

     0.786 MB (compressed) written to integral file ( 57.2%)


 NUMBER OF SORTED TWO-ELECTRON INTEGRALS:     151151.     BUFFER LENGTH:  32768
 NUMBER OF SEGMENTS:   1  SEGMENT LENGTH:     151151      RECORD LENGTH: 524288

 Memory used in sort:       0.71 MW

 SORT1 READ      187948. AND WROTE      123118. INTEGRALS IN      1 RECORDS. CPU TIME:     0.00 SEC, REAL TIME:     0.03 SEC
 SORT2 READ      123118. AND WROTE      151151. INTEGRALS IN      3 RECORDS. CPU TIME:     0.02 SEC, REAL TIME:     0.01 SEC

 FILE SIZES:   FILE 1:    30.9 MBYTE,  FILE 4:     4.3 MBYTE,   TOTAL:     35.1 MBYTE

 OPERATOR DM      FOR CENTER  0  COORDINATES:    0.000000    0.000000    0.000000


 **********************************************************************************************************************************
 DATASETS  * FILE   NREC   LENGTH (MB)   RECORD NAMES
              1      19       29.20       500      610      700      900      950      970     1000      129      960     1100   
                                          VAR    BASINP    GEOM    SYMINP    ZMAT    AOBASIS   BASIS     P2S    ABASIS      S 
                                         1400     1410     1200     1210     1080     1600     1650     1300     1700   
                                           T        V       H0       H01     AOSYM     SMH    MOLCAS    ERIS     OPER   

 PROGRAMS   *        TOTAL       INT
 CPU TIMES  *         0.55      0.42
 REAL TIME  *         1.57 SEC
 DISK USED  *        33.86 MB
 **********************************************************************************************************************************


 Program * Restricted Hartree-Fock

 Orbital guess generated from atomic densities. Full valence occupancy:   10   2

 Initial occupancy:   8   2

 NELEC=   20   SYM=1   MS2= 0   THRE=1.0D-08   THRD=3.2D-06   THRG=3.2D-06  HFMA2=F  DIIS_START=2   DIIS_MAX=10   DIIS_INCORE=F

 Level shifts:    0.00 (CLOSED)    0.00 (OPEN)    0.30 (GAP_MIN)

 ITER           ETOT              DE          GRAD        DDIFF     DIIS  NEXP   TIME(IT)  TIME(TOT)  DIAG
   1     -200.00078554    -200.00078554     0.00D+00     0.29D+00     0     0       0.01      0.01    start
   2     -200.03872190      -0.03793637     0.19D-01     0.42D-01     1     0       0.00      0.01    diag
   3     -200.04690586      -0.00818396     0.91D-02     0.11D-01     2     0       0.00      0.01    diag
   4     -200.04721464      -0.00030878     0.12D-02     0.26D-02     3     0       0.00      0.01    diag
   5     -200.04724915      -0.00003451     0.34D-03     0.86D-03     4     0       0.01      0.02    diag
   6     -200.04725093      -0.00000178     0.70D-04     0.18D-03     5     0       0.00      0.02    diag
   7     -200.04725099      -0.00000005     0.18D-04     0.30D-04     6     0       0.00      0.02    diag
   8     -200.04725099      -0.00000000     0.43D-05     0.92D-05     7     0       0.00      0.02    fixocc
   9     -200.04725099      -0.00000000     0.28D-06     0.81D-06     8     0       0.01      0.03    diag
  10     -200.04725099      -0.00000000     0.64D-07     0.10D-06     0     0       0.00      0.03    diag/orth

 Final occupancy:   8   2

 !RHF STATE 1.1 Energy               -200.047250988975
  RHF One-electron energy            -340.981456306740
  RHF Two-electron energy             110.635162124497
  RHF Kinetic energy                  200.003130348662
  RHF Nuclear energy                   30.299043193268
  RHF Virial quotient                  -1.000220599749

 !RHF STATE 1.1 Dipole moment          -0.66173894    -1.21418038     0.00000000
 Dipole moment /Debye                  -1.68197263    -3.08613870     0.00000000

 Orbital energies:

           1.1          2.1          3.1          4.1          5.1          6.1          7.1          8.1          9.1         10.1
    -26.332940   -26.249443    -1.634475    -1.552989    -0.801027    -0.731892    -0.667249    -0.602301     0.149079     0.292695

           1.2          2.2          3.2          4.2
     -0.681057    -0.602192     1.338536     1.436785


 HOMO      2.2    -0.602192 =     -16.3865eV
 LUMO      9.1     0.149079 =       4.0567eV
 LUMO-HOMO         0.751271 =      20.4431eV

 Orbitals saved in record  2100.2


 **********************************************************************************************************************************
 DATASETS  * FILE   NREC   LENGTH (MB)   RECORD NAMES
              1      19       29.20       500      610      700      900      950      970     1000      129      960     1100   
                                          VAR    BASINP    GEOM    SYMINP    ZMAT    AOBASIS   BASIS     P2S    ABASIS      S 
                                         1400     1410     1200     1210     1080     1600     1650     1300     1700   
                                           T        V       H0       H01     AOSYM     SMH    MOLCAS    ERIS     OPER   

              2       4        0.44       700     1000      520     2100   
                                         GEOM     BASIS   MCVARS     RHF  

 PROGRAMS   *        TOTAL    HF-SCF       INT
 CPU TIMES  *         0.58      0.03      0.42
 REAL TIME  *         1.61 SEC
 DISK USED  *        33.86 MB
 **********************************************************************************************************************************


 PROGRAM * CCSD (Closed-shell coupled cluster)     Authors: C. Hampel, H.-J. Werner, 1991, M. Deegan, P.J. Knowles, 1992


 Convergence thresholds:  THRVAR = 1.00D-08  THRDEN = 1.00D-06

 CCSD(T)     terms to be evaluated (factor= 1.000)


 Number of core orbitals:           2 (   2   0 )
 Number of closed-shell orbitals:   8 (   6   2 )
 Number of external orbitals:      28 (  20   8 )

 Molecular orbitals read from record     2100.2  Type=RHF/CANONICAL  

 Number of N-1 electron functions:               8
 Number of N-2 electron functions:              36
 Number of singly external CSFs:               136
 Number of doubly external CSFs:             13232
 Total number of CSFs:                       13369

 Length of J-op  integral file:               0.00 MB
 Length of K-op  integral file:               0.12 MB
 Length of 3-ext integral record:             0.00 MB

 Memory could be reduced to 0.21 Mwords without degradation in triples

 Integral transformation finished. Total CPU:   0.01 sec, npass=  1  Memory used:   0.19 MW

 Reference energy:                   -200.04725099

 MP2 singlet pair energy:              -0.24380173
 MP2 triplet pair energy:              -0.16220811
 MP2 correlation energy:               -0.40600985
 MP2 total energy:                   -200.45326083

 SCS-MP2 correlation energy:           -0.39349157   (PS=  1.200000  PT=  0.333333)
 SCS-MP2 total energy:               -200.44074256

 ITER.      SQ.NORM     CORR.ENERGY   TOTAL ENERGY   ENERGY CHANGE        DEN1      VAR(S)    VAR(P)  DIIS     TIME  TIME/IT
   1      1.08146656    -0.41468140  -200.46193239    -0.00867156    -0.00295307  0.74D-03  0.88D-03  1  1     0.88     0.02
   2      1.08530513    -0.41562665  -200.46287763    -0.00094524    -0.00564016  0.11D-04  0.96D-04  2  2     0.90     0.02
   3      1.08638201    -0.41578483  -200.46303581    -0.00015818    -0.00094619  0.68D-05  0.31D-05  3  3     0.92     0.02
   4      1.08664597    -0.41576657  -200.46301756     0.00001825    -0.00018204  0.24D-06  0.21D-06  4  4     0.93     0.02
   5      1.08670055    -0.41575997  -200.46301096     0.00000660    -0.00002823  0.32D-07  0.13D-07  5  5     0.95     0.02
   6      1.08670922    -0.41576007  -200.46301106    -0.00000009    -0.00000090  0.46D-08  0.12D-08  6  6     0.97     0.02
   7      1.08671116    -0.41575999  -200.46301098     0.00000007     0.00000065  0.35D-09  0.13D-09  6  1     0.98     0.02

 Norm of t1 vector:      0.03613311      S-energy:    -0.00000038      T1 diagnostic:  0.00638749
                                                                       D1 diagnostic:  0.01672844
                                                                       D2 diagnostic:  0.11530244 (internal)


 Total CPU time for triples:      0.07 sec


 RESULTS
 =======

  Reference energy                   -200.047250988975
  CCSD singlet pair energy             -0.270751891458
  CCSD triplet pair energy             -0.145007726665
  CCSD correlation energy              -0.415759994598

  Triples (T) contribution             -0.004132932805
  Total correlation energy             -0.419892927404

  CCSD total energy                  -200.463010983573
  CCSD[T] energy                     -200.467432511545
  CCSD-T energy                      -200.467013815881
 !CCSD(T) total energy               -200.467143916379

 Timing summary (sec):

 STEP                 CPU(USER)    SYS     CPU(TOT)    WALL
 Transformation          0.01      0.00      0.01      0.05
 CCSD iterations         0.98      0.03      1.01      0.16
 Triples                 0.07      0.00      0.07      0.07

 Program statistics:

 Available memory in ccsd:               805306104
 Min. memory needed in ccsd:                 51981
 Max. memory used in ccsd:                   60669
 Max. memory used in cckext:                103076 ( 7 integral passes)



 **********************************************************************************************************************************
 DATASETS  * FILE   NREC   LENGTH (MB)   RECORD NAMES
              1      20       29.90       500      610      700      900      950      970     1000      129      960     1100   
                                          VAR    BASINP    GEOM    SYMINP    ZMAT    AOBASIS   BASIS     P2S    ABASIS      S 
                                         1400     1410     1200     1210     1080     1600     1650     1300     1700     1380   
                                           T        V       H0       H01     AOSYM     SMH    MOLCAS    ERIS     OPER     JKOP   

              2       4        0.44       700     1000      520     2100   
                                         GEOM     BASIS   MCVARS     RHF  

 PROGRAMS   *        TOTAL   CCSD(T)    HF-SCF       INT
 CPU TIMES  *         0.83      0.25      0.03      0.42
 REAL TIME  *         1.93 SEC
 DISK USED  *        33.86 MB
 **********************************************************************************************************************************

 Dump information in style XML to xml output                                                                      

 Orbitals will not be exported.

 **********************************************************************************************************************************

 CCSD(T)/cc-pVDZ energy=   -200.467143916379

         CCSD(T)          HF-SCF
   -200.46714392   -200.04725099
 **********************************************************************************************************************************
 Molpro calculation terminated
