
 Working directory              : /home/jovyan/scratch/molpro.aXEB8Fab8U/
 Global scratch directory       : /home/jovyan/scratch/molpro.aXEB8Fab8U/
 Wavefunction directory         : /home/jovyan/wfu/
 Main file repository           : /home/jovyan/scratch/molpro.aXEB8Fab8U/

 id        : cardiff

 Nodes                nprocs
 jupyter-c-2efrancisan    1
 GA implementation: MPI file
 GA implementation (serial work in mppx): MPI file

 Using customized tuning parameters: mindgm=1; mindgv=20; mindgc=4; mindgr=1; noblas=0; minvec=7
 default implementation of scratch files=df  


 Variables initialized (1031), CPU time= 0.00 sec
 
 
 
 geometry={
            7
     C         -0.70348642     -0.15745798     -0.00001606
     O          0.11728813      0.96008129      0.00007194
     H         -1.75741170      0.15182813     -0.00862109
     H         -0.54634194     -0.80376173     -0.87808291
     H         -0.55866648     -0.79545365      0.88637925
     H          1.10509166      0.60322056      0.00026094
     F          2.34352676      0.04154336      0.00000794
 }
 basis=cc-pVTZ
 angstrom
 charge=-1
 
 hf; papt;mp2
 
 
 
 {put,xml;noorbitals,nobasis}
 Commands initialized (841), CPU time= 0.01 sec, 704 directives.
 Default parameters read. Elapsed time= 0.08 sec

 Checking input...
 Passed
1


                                         ***  PROGRAM SYSTEM MOLPRO  ***
                                       Copyright, TTI GmbH Stuttgart, 2015
                                    Version 2023.1 linked Mon Jun  5 13:27:10 2023


 **********************************************************************************************************************************
 LABEL *                                                                                                                                                                 
  (16 PROC) 64 bit serial version                                                        DATE: 02-Aug-23          TIME: 15:44:34  
 **********************************************************************************************************************************

 SHA1:             9738a14712571edd23541b6d7c4f3a3d766f8287
 **********************************************************************************************************************************

 Memory per process:       805 MW
 Total memory per node:   1074 MW
 Total GA space:           268 MW

 GA preallocation disabled
 GA check enabled

 Geometry recognized as XYZ


 Variable memory set to 805.3 MW

 SETTING BASIS          =    CC-PVTZ
 SETTING CHARGE         =        -1.00000000                                  


 Recomputing integrals since basis changed


 Using spherical harmonics

 Library entry C      S cc-pVTZ              selected for orbital group  1
 Library entry C      P cc-pVTZ              selected for orbital group  1
 Library entry C      D cc-pVTZ              selected for orbital group  1
 Library entry C      F cc-pVTZ              selected for orbital group  1
 Library entry O      S cc-pVTZ              selected for orbital group  2
 Library entry O      P cc-pVTZ              selected for orbital group  2
 Library entry O      D cc-pVTZ              selected for orbital group  2
 Library entry O      F cc-pVTZ              selected for orbital group  2
 Library entry H      S cc-pVTZ              selected for orbital group  3
 Library entry H      P cc-pVTZ              selected for orbital group  3
 Library entry H      D cc-pVTZ              selected for orbital group  3
 Library entry F      S cc-pVTZ              selected for orbital group  4
 Library entry F      P cc-pVTZ              selected for orbital group  4
 Library entry F      D cc-pVTZ              selected for orbital group  4
 Library entry F      F cc-pVTZ              selected for orbital group  4


 PROGRAM * SEWARD (Integral evaluation for generally contracted gaussian basis sets)     Author: Roland Lindh, 1990

 Geometry written to block  1 of record 700


 Point group  C1  



 ATOMIC COORDINATES

 NR  ATOM    CHARGE       X              Y              Z

   1  C       6.00   -1.329396666   -0.297552458   -0.000030349
   2  O       8.00    0.221642443    1.814290695    0.000135947
   3  H       1.00   -3.321026801    0.286913584   -0.016291499
   4  H       1.00   -1.032436637   -1.518889539   -1.659336215
   5  H       1.00   -1.055726642   -1.503189543    1.675014025
   6  H       1.00    2.088320580    1.139921651    0.000493105
   7  F       9.00    4.428623742    0.078505573    0.000015004

 Bond lengths in Bohr (Angstrom)

 1-2  2.620229733  1-3  2.075681954  1-4  2.081620878  1-5  2.081881293  2-6  1.984757164
     ( 1.386565862)     ( 1.098403587)     ( 1.101546330)     ( 1.101684136)     ( 1.050288261)

 Bond angles

  1-2-6  106.43223859   2-1-3  109.93982776   2-1-4  112.86058657   2-1-5  112.88507547

  3-1-4  107.20821913   3-1-5  107.18738980   4-1-5  106.42857108

 NUCLEAR CHARGE:                   27
 NUMBER OF PRIMITIVE AOS:         209
 NUMBER OF SYMMETRY AOS:          190
 NUMBER OF CONTRACTIONS:          146   (  146A   )
 NUMBER OF INNER CORE ORBITALS:     0   (    0A   )
 NUMBER OF OUTER CORE ORBITALS:     3   (    3A   )
 NUMBER OF VALENCE ORBITALS:       16   (   16A   )


 NUCLEAR REPULSION ENERGY   73.17392355


 Eigenvalues of metric

         1 0.134E-02 0.168E-02 0.195E-02 0.251E-02 0.324E-02 0.463E-02 0.669E-02 0.966E-02


 Contracted 2-electron integrals neglected if value below      1.0D-11
 AO integral compression algorithm  1   Integral accuracy      1.0D-11

     211.550 MB (compressed) written to integral file ( 40.6%)


 NUMBER OF SORTED TWO-ELECTRON INTEGRALS:   57582546.     BUFFER LENGTH:  32768
 NUMBER OF SEGMENTS:   4  SEGMENT LENGTH:   15999503      RECORD LENGTH: 524288

 Memory used in sort:      16.56 MW

 SORT1 READ    65079080. AND WROTE    50051877. INTEGRALS IN    145 RECORDS. CPU TIME:     0.76 SEC, REAL TIME:     1.38 SEC
 SORT2 READ    50051877. AND WROTE    57582546. INTEGRALS IN    807 RECORDS. CPU TIME:     1.07 SEC, REAL TIME:     1.34 SEC

 FILE SIZES:   FILE 1:   242.4 MBYTE,  FILE 4:   608.2 MBYTE,   TOTAL:    850.7 MBYTE

 OPERATOR DM      FOR CENTER  0  COORDINATES:    0.000000    0.000000    0.000000


 **********************************************************************************************************************************
 DATASETS  * FILE   NREC   LENGTH (MB)   RECORD NAMES
              1      19      205.02       500      610      700      900      950      970     1000      129      960     1100   
                                          VAR    BASINP    GEOM    SYMINP    ZMAT    AOBASIS   BASIS     P2S    ABASIS      S 
                                         1400     1410     1200     1210     1080     1600     1650     1300     1700   
                                           T        V       H0       H01     AOSYM     SMH    MOLCAS    ERIS     OPER   

 PROGRAMS   *        TOTAL       INT
 CPU TIMES  *         5.86      5.72
 REAL TIME  *         8.58 SEC
 DISK USED  *       811.73 MB
 **********************************************************************************************************************************


 Program * Restricted Hartree-Fock

 Orbital guess generated from atomic densities. Full valence occupancy:   19

 Initial occupancy:  14

 NELEC=   28   SYM=1   MS2= 0   THRE=1.0D-08   THRD=3.2D-06   THRG=3.2D-06  HFMA2=F  DIIS_START=2   DIIS_MAX=10   DIIS_INCORE=F

 Level shifts:    0.00 (CLOSED)    0.00 (OPEN)    0.30 (GAP_MIN)

 ITER           ETOT              DE          GRAD        DDIFF     DIIS  NEXP   TIME(IT)  TIME(TOT)  DIAG
   1     -214.47327738    -214.47327738     0.00D+00     0.69D-01     0     0       0.65      1.30    start
   2     -214.53782844      -0.06455106     0.81D-02     0.11D-01     1     0       0.65      1.95    diag
   3     -214.56695517      -0.02912673     0.55D-02     0.38D-02     2     0       0.67      2.62    diag
   4     -214.56753868      -0.00058351     0.42D-03     0.70D-03     3     0       0.68      3.30    diag
   5     -214.56757854      -0.00003986     0.11D-03     0.22D-03     4     0       0.66      3.96    diag
   6     -214.56758285      -0.00000431     0.49D-04     0.61D-04     5     0       0.66      4.62    diag
   7     -214.56758325      -0.00000040     0.12D-04     0.20D-04     6     0       0.66      5.28    diag
   8     -214.56758329      -0.00000004     0.38D-05     0.50D-05     7     0       0.66      5.94    fixocc
   9     -214.56758330      -0.00000001     0.12D-05     0.21D-05     8     0       0.66      6.60    diag
  10     -214.56758330      -0.00000000     0.24D-06     0.40D-06     0     0       0.66      7.26    diag/orth

 Final occupancy:  14

 !RHF STATE 1.1 Energy               -214.567583295654
  RHF One-electron energy            -450.026521129023
  RHF Two-electron energy             162.285014279827
  RHF Kinetic energy                  214.544587691862
  RHF Nuclear energy                   73.173923553542
  RHF Virial quotient                  -1.000107183332

 !RHF STATE 1.1 Dipole moment          -2.90907890    -0.82575734    -0.00051504
 Dipole moment /Debye                  -7.39414104    -2.09886579    -0.00130911

 Orbital energies:

           1.1          2.1          3.1          4.1          5.1          6.1          7.1          8.1          9.1         10.1
    -25.871262   -20.300784   -11.082167    -1.155448    -1.104868    -0.716422    -0.470581    -0.415420    -0.385322    -0.307873

          11.1         12.1         13.1         14.1         15.1         16.1
     -0.247752    -0.243844    -0.214621    -0.211856     0.302757     0.366420


 HOMO     14.1    -0.211856 =      -5.7649eV
 LUMO     15.1     0.302757 =       8.2384eV
 LUMO-HOMO         0.514613 =      14.0033eV

 Orbitals saved in record  2100.2


 **********************************************************************************************************************************
 DATASETS  * FILE   NREC   LENGTH (MB)   RECORD NAMES
              1      19      205.02       500      610      700      900      950      970     1000      129      960     1100   
                                          VAR    BASINP    GEOM    SYMINP    ZMAT    AOBASIS   BASIS     P2S    ABASIS      S 
                                         1400     1410     1200     1210     1080     1600     1650     1300     1700   
                                           T        V       H0       H01     AOSYM     SMH    MOLCAS    ERIS     OPER   

              2       4        0.82       700     1000      520     2100   
                                         GEOM     BASIS   MCVARS     RHF  

 PROGRAMS   *        TOTAL    HF-SCF       INT
 CPU TIMES  *        13.12      7.26      5.72
 REAL TIME  *        16.74 SEC
 DISK USED  *       811.73 MB
 **********************************************************************************************************************************


 PROGRAM * PAPT (Closed-shell)     Authors: C. Hampel, H.-J. Werner, 1991, P.J. Knowles, 2021


 Convergence thresholds:  THRVAR = 1.00D-08  THRDEN = 1.00D-06

 Number of core orbitals:           3 (   3 )
 Number of closed-shell orbitals:  11 (  11 )
 Number of external orbitals:     132 ( 132 )

 Molecular orbitals read from record     2100.2  Type=RHF/CANONICAL  

 Number of N-1 electron functions:              11
 Number of N-2 electron functions:              66
 Number of singly external CSFs:              1452
 Number of doubly external CSFs:           1054878
 Total number of CSFs:                     1056331

 Length of J-op  integral file:               0.00 MB
 Length of K-op  integral file:               1.53 MB

 Integral transformation finished. Total CPU:   1.36 sec, npass=  1  Memory used:   2.81 MW

 Reference energy:                   -214.56758330

                        CORR.ENERGY   TOTAL ENERGY   ENERGY CHANGE
 MP2:                   -0.71254990  -215.28013320    -0.71254990

 SCS-MP2 correlation energy:           -0.70276067   (PS=  1.200000  PT=  0.333333)
 SCS-MP2 total energy:               -215.27034397
 Iteration:   1     0.2705D+00
 Iteration:   2     0.3151D+00
 Iteration:   3     0.2011D+00
 Iteration:   4     0.2091D+00
 Iteration:   5     0.2118D+01
 Iteration:   6     0.1563D+00
 Iteration:   7     0.1784D+00
 Iteration:   8     0.9439D-01
 Iteration:   9     0.4185D-01
 Iteration:  10     0.1221D+00
 Iteration:  11     0.1770D-01
 Iteration:  12     0.7512D-01
 Iteration:  13     0.9547D-02
 Iteration:  14     0.5998D-02
 Iteration:  15     0.6561D-02
 Iteration:  16     0.1401D-02
 Iteration:  17     0.2671D-02
 Iteration:  18     0.7558D-03
 Iteration:  19     0.7528D-03
 Iteration:  20     0.5671D-03
 Iteration:  21     0.1731D-03
 Iteration:  22     0.1953D-02
 Iteration:  23     0.5666D-04
 PAPT operator written to  7000.1
 PAPT orbitals and eigenvalues written to  7000.2

 MP3(D):                -0.72130054  -215.28888383    -0.00875063



 RESULTS
 =======

  Reference energy                   -214.567583295654
  MP3 singlet pair energy              -0.479958487796
  MP3 triplet pair energy              -0.241342049191
  MP3 correlation energy               -0.721300536987

 !MP3 total energy                   -215.288883832641

 Timing summary (sec):

 STEP                 CPU(USER)    SYS     CPU(TOT)    WALL
 Transformation          1.44      0.11      1.55      2.60
 CCSD iterations        22.79      0.22     23.01     16.26

 Program statistics:

 Available memory in ccsd:               805305870
 Min. memory needed in ccsd:               2884166
 Max. memory used in ccsd:                 3801126
 Max. memory used in cckext:               3019439 ( 1 integral passes)



 **********************************************************************************************************************************
 DATASETS  * FILE   NREC   LENGTH (MB)   RECORD NAMES
              1      21      221.56       500      610      700      900      950      970     1000      129      960     1100   
                                          VAR    BASINP    GEOM    SYMINP    ZMAT    AOBASIS   BASIS     P2S    ABASIS      S 
                                         1400     1410     1200     1210     1080     1600     1650     1300     1700     1380   
                                           T        V       H0       H01     AOSYM     SMH    MOLCAS    ERIS     OPER     JKOP   
                                         7000   
                                        PAPT AO    

              2       5        1.41       700     1000      520     2100     7000   
                                         GEOM     BASIS   MCVARS     RHF     PAPT   

 PROGRAMS   *        TOTAL      PAPT    HF-SCF       INT
 CPU TIMES  *        23.97     10.85      7.26      5.72
 REAL TIME  *        35.66 SEC
 DISK USED  *       811.73 MB
 **********************************************************************************************************************************


 PROGRAM * MP2 (Closed-shell)     Authors: C. Hampel, H.-J. Werner, 1991, M. Deegan, P.J. Knowles, 1992


 Convergence thresholds:  THRVAR = 1.00D-08  THRDEN = 1.00D-06

 Number of core orbitals:           3 (   3 )
 Number of closed-shell orbitals:  11 (  11 )
 Number of external orbitals:     132 ( 132 )

 Molecular orbitals read from record     7000.2  Type=PAPT/CANONICAL (state 1.1)

 Number of N-1 electron functions:              11
 Number of N-2 electron functions:              66
 Number of singly external CSFs:              1452
 Number of doubly external CSFs:           1054878
 Total number of CSFs:                     1056331

 Length of J-op  integral file:               0.00 MB
 Length of K-op  integral file:               1.53 MB

 Integral transformation finished. Total CPU:   1.30 sec, npass=  1  Memory used:   2.81 MW
 Orbital energies read from record       7000.2  Type=PAPT/CANONICAL (state 1.1)

 Memory needed for MP2:                      0.10 MW

 SCS-MP2 correlation energy:           -0.719991990695   (PS=  1.200000  PT=  0.333333)
 SCS-MP2 total energy:               -215.287575286349


  Reference energy                   -214.567583295654
  MP2 singlet pair energy              -0.463085691268
  MP2 triplet pair energy              -0.264036151886
  MP2 correlation energy               -0.727121843154

 !MP2 total energy                   -215.294705138807


 **********************************************************************************************************************************
 DATASETS  * FILE   NREC   LENGTH (MB)   RECORD NAMES
              1      21      221.56       500      610      700      900      950      970     1000      129      960     1100   
                                          VAR    BASINP    GEOM    SYMINP    ZMAT    AOBASIS   BASIS     P2S    ABASIS      S 
                                         1400     1410     1200     1210     1080     1600     1650     1300     1700     1380   
                                           T        V       H0       H01     AOSYM     SMH    MOLCAS    ERIS     OPER     JKOP   
                                         7000   
                                        PAPT AO    

              2       5        1.41       700     1000      520     2100     7000   
                                         GEOM     BASIS   MCVARS     RHF     PAPT   

 PROGRAMS   *        TOTAL       MP2      PAPT    HF-SCF       INT
 CPU TIMES  *        26.09      2.12     10.85      7.26      5.72
 REAL TIME  *        38.66 SEC
 DISK USED  *       811.73 MB
 **********************************************************************************************************************************

 Dump information in style XML to xml output                                                                      

 Orbitals will not be exported.

 **********************************************************************************************************************************

 MP2/cc-pVTZ energy=   -215.294705138807

             MP2            PAPT          HF-SCF
   -215.29470514   -215.28888383   -214.56758330
 **********************************************************************************************************************************
 Molpro calculation terminated
