
 Working directory              : /home/jovyan/scratch/molpro.2G1GIDqEfZ/
 Global scratch directory       : /home/jovyan/scratch/molpro.2G1GIDqEfZ/
 Wavefunction directory         : /home/jovyan/wfu/
 Main file repository           : /home/jovyan/scratch/molpro.2G1GIDqEfZ/

 id        : cardiff

 Nodes                nprocs
 jupyter-c-2efrancisan    1
 GA implementation: MPI file
 GA implementation (serial work in mppx): MPI file

 Using customized tuning parameters: mindgm=1; mindgv=20; mindgc=4; mindgr=1; noblas=0; minvec=7
 default implementation of scratch files=df  


 Variables initialized (1031), CPU time= 0.00 sec
 
 
 
 geometry={
 22
  C     0.0000000    0.0000000    0.7395831
  C     1.1315582   -0.3997245    1.4579412
  C     1.1319975   -0.4003733    2.8462384
  C     0.0000000    0.0000000    3.5470967
  C    -1.1319975    0.4003733    2.8462384
  C    -1.1315582    0.3997245    1.4579412
  C     0.0000000    0.0000000   -0.7395831
  C     1.1315582    0.3997245   -1.4579412
  C     1.1319975    0.4003733   -2.8462384
  C     0.0000000    0.0000000   -3.5470967
  C    -1.1319975   -0.4003733   -2.8462384
  C    -1.1315582   -0.3997245   -1.4579412
  H     2.0096598   -0.7362253    0.9219214
  H     2.0161092   -0.7223128    3.3820552
  H     0.0000000    0.0000000    4.6295229
  H    -2.0161092    0.7223128    3.3820552
  H    -2.0096598    0.7362253    0.9219214
  H     2.0096598    0.7362253   -0.9219214
  H     2.0161092    0.7223128   -3.3820552
  H     0.0000000    0.0000000   -4.6295229
  H    -2.0161092   -0.7223128   -3.3820552
  H    -2.0096598   -0.7362253   -0.9219214
 }
 basis=cc-pVDZ
 angstrom
 
 
 hf; mp4
 
 
 
 {put,xml;noorbitals,nobasis}
 Commands initialized (841), CPU time= 0.01 sec, 704 directives.
 Default parameters read. Elapsed time= 0.08 sec

 Checking input...
 Passed
1


                                         ***  PROGRAM SYSTEM MOLPRO  ***
                                       Copyright, TTI GmbH Stuttgart, 2015
                                    Version 2023.1 linked Mon Jun  5 13:27:10 2023


 **********************************************************************************************************************************
 LABEL *                                                                                                                                                                 
  (16 PROC) 64 bit serial version                                                        DATE: 03-Aug-23          TIME: 14:00:31  
 **********************************************************************************************************************************

 SHA1:             9738a14712571edd23541b6d7c4f3a3d766f8287
 **********************************************************************************************************************************

 Memory per process:       805 MW
 Total memory per node:   1074 MW
 Total GA space:           268 MW

 GA preallocation disabled
 GA check enabled

 Geometry recognized as XYZ


 Variable memory set to 805.3 MW

 SETTING BASIS          =    CC-PVDZ


 Recomputing integrals since basis changed


 Using spherical harmonics

 Library entry C      S cc-pVDZ              selected for orbital group  1
 Library entry C      P cc-pVDZ              selected for orbital group  1
 Library entry C      D cc-pVDZ              selected for orbital group  1
 Library entry H      S cc-pVDZ              selected for orbital group  2
 Library entry H      P cc-pVDZ              selected for orbital group  2


 PROGRAM * SEWARD (Integral evaluation for generally contracted gaussian basis sets)     Author: Roland Lindh, 1990

 Geometry written to block  1 of record 700


 Point group  D2  



 ATOMIC COORDINATES

 NR  ATOM    CHARGE       X              Y              Z

   1  C       6.00    0.000000000    0.000000000    1.397609505
   2  C       6.00    0.000000000    0.000000000   -1.397609505
   3  C       6.00    2.138335092   -0.755369830    2.755109574
   4  C       6.00   -2.138335092    0.755369830    2.755109574
   5  C       6.00    2.138335092    0.755369830   -2.755109574
   6  C       6.00   -2.138335092   -0.755369830   -2.755109574
   7  C       6.00    2.139165249   -0.756595885    5.378611061
   8  C       6.00   -2.139165249    0.756595885    5.378611061
   9  C       6.00    2.139165249    0.756595885   -5.378611061
  10  C       6.00   -2.139165249   -0.756595885   -5.378611061
  11  C       6.00    0.000000000    0.000000000    6.703041301
  12  C       6.00    0.000000000    0.000000000   -6.703041301
  13  H       1.00    3.797706626   -1.391264183    1.742178954
  14  H       1.00   -3.797706626    1.391264183    1.742178954
  15  H       1.00    3.797706626    1.391264183   -1.742178954
  16  H       1.00   -3.797706626   -1.391264183   -1.742178954
  17  H       1.00    3.809894225   -1.364973368    6.391158066
  18  H       1.00   -3.809894225    1.364973368    6.391158066
  19  H       1.00    3.809894225    1.364973368   -6.391158066
  20  H       1.00   -3.809894225   -1.364973368   -6.391158066
  21  H       1.00    0.000000000    0.000000000    8.748530369
  22  H       1.00    0.000000000    0.000000000   -8.748530369

 Bond lengths in Bohr (Angstrom)

 1-2  2.795219011  1-3  2.643079072  1-4  2.643079072  2-5  2.643079072  2-6  2.643079072
     ( 1.479166200)     ( 1.398657212)     ( 1.398657212)     ( 1.398657212)     ( 1.398657212)

  3- 7  2.623501905   3-13  2.045459350   4- 8  2.623501905   4-14  2.045459350   5- 9  2.623501905
       ( 1.388297421)       ( 1.082410474)       ( 1.388297421)       ( 1.082410474)       ( 1.388297421)

  5-15  2.045459350   6-10  2.623501905   6-16  2.045459350   7-11  2.627276299   7-17  2.046145135
       ( 1.082410474)       ( 1.388297421)       ( 1.082410474)       ( 1.390294744)       ( 1.082773376)

  8-11  2.627276299   8-18  2.046145135   9-12  2.627276299   9-19  2.046145135  10-12  2.627276299
       ( 1.390294744)       ( 1.082773376)       ( 1.390294744)       ( 1.082773376)       ( 1.390294744)

 10-20  2.046145135  11-21  2.045489068  12-22  2.045489068
       ( 1.082773376)       ( 1.082426200)       ( 1.082426200)

 Bond angles

  1- 2- 5  120.90429317   1- 2- 6  120.90429317   1- 3- 7  120.93030479   1- 3-13  119.39508733

  1- 4- 8  120.93030479   1- 4-14  119.39508733   2- 1- 3  120.90429317   2- 1- 4  120.90429317

  2- 5- 9  120.93030479   2- 5-15  119.39508733   2- 6-10  120.93030479   2- 6-16  119.39508733

  3- 1- 4  118.19141366   3- 7-11  120.24611520   3- 7-17  119.68644493   4- 8-11  120.24611520

  4- 8-18  119.68644493   5- 2- 6  118.19141366   5- 9-12  120.24611520   5- 9-19  119.68644493

  6-10-12  120.24611520   6-10-20  119.68644493   7- 3-13  119.65704389   7-11- 8  119.45572385

  7-11-21  120.27213807   8- 4-14  119.65704389   8-11-21  120.27213807   9- 5-15  119.65704389

  9-12-10  119.45572385   9-12-22  120.27213807  10- 6-16  119.65704389  10-12-22  120.27213807

 11- 7-17  120.06548326  11- 8-18  120.06548326  12- 9-19  120.06548326  12-10-20  120.06548326

 NUCLEAR CHARGE:                   82
 NUMBER OF PRIMITIVE AOS:         394
 NUMBER OF SYMMETRY AOS:          382
 NUMBER OF CONTRACTIONS:          218   (   57A   +   52B3  +   52B2  +   57B1  )
 NUMBER OF INNER CORE ORBITALS:     0   (    0A   +    0B3  +    0B2  +    0B1  )
 NUMBER OF OUTER CORE ORBITALS:    12   (    4A   +    2B3  +    2B2  +    4B1  )
 NUMBER OF VALENCE ORBITALS:       58   (   15A   +   14B3  +   14B2  +   15B1  )


 NUCLEAR REPULSION ENERGY  601.35158889

 Eigenvalues of metric

         1 0.278E-03 0.223E-02 0.321E-02 0.145E-01 0.159E-01 0.216E-01 0.240E-01 0.257E-01
         2 0.138E-02 0.212E-02 0.320E-02 0.135E-01 0.243E-01 0.306E-01 0.321E-01 0.372E-01
         3 0.769E-03 0.164E-02 0.301E-02 0.129E-01 0.224E-01 0.261E-01 0.305E-01 0.345E-01
         4 0.278E-03 0.789E-03 0.233E-02 0.341E-02 0.145E-01 0.180E-01 0.226E-01 0.244E-01


 Contracted 2-electron integrals neglected if value below      1.0D-11
 AO integral compression algorithm  1   Integral accuracy      1.0D-11

     359.399 MB (compressed) written to integral file ( 51.9%)


 NUMBER OF SORTED TWO-ELECTRON INTEGRALS:   72218099.     BUFFER LENGTH:  32768
 NUMBER OF SEGMENTS:   5  SEGMENT LENGTH:   15997248      RECORD LENGTH: 524288

 Memory used in sort:      16.55 MW

 SORT1 READ    86636992. AND WROTE    71490668. INTEGRALS IN    208 RECORDS. CPU TIME:     2.48 SEC, REAL TIME:     3.26 SEC
 SORT2 READ    71490668. AND WROTE    72218099. INTEGRALS IN   1371 RECORDS. CPU TIME:     1.86 SEC, REAL TIME:     2.39 SEC

 FILE SIZES:   FILE 1:   390.8 MBYTE,  FILE 4:   872.5 MBYTE,   TOTAL:   1263.3 MBYTE

 OPERATOR DM      FOR CENTER  0  COORDINATES:    0.000000    0.000000    0.000000


 **********************************************************************************************************************************
 DATASETS  * FILE   NREC   LENGTH (MB)   RECORD NAMES
              1      19      323.49       500      610      700      900      950      970     1000      129      960     1100   
                                          VAR    BASINP    GEOM    SYMINP    ZMAT    AOBASIS   BASIS     P2S    ABASIS      S 
                                         1400     1410     1200     1210     1080     1600     1650     1300     1700   
                                           T        V       H0       H01     AOSYM     SMH    MOLCAS    ERIS     OPER   

 PROGRAMS   *        TOTAL       INT
 CPU TIMES  *        31.37     31.24
 REAL TIME  *        34.66 SEC
 DISK USED  *         1.18 GB
 **********************************************************************************************************************************


 Program * Restricted Hartree-Fock

 Orbital guess generated from atomic densities. Full valence occupancy:   19  16  16  19

 Initial occupancy:  12   9   9  11

 NELEC=   82   SYM=1   MS2= 0   THRE=1.0D-08   THRD=3.2D-06   THRG=3.2D-06  HFMA2=F  DIIS_START=2   DIIS_MAX=10   DIIS_INCORE=F

 Level shifts:    0.00 (CLOSED)    0.00 (OPEN)    0.30 (GAP_MIN)

 ITER           ETOT              DE          GRAD        DDIFF     DIIS  NEXP   TIME(IT)  TIME(TOT)  DIAG
   1     -460.18374678    -460.18374678     0.00D+00     0.15D+00     0     0       0.27      0.54    start
   2     -460.27890769      -0.09516091     0.58D-02     0.14D-01     1     0       0.27      0.81    diag
   3     -460.28792934      -0.00902165     0.20D-02     0.43D-02     2     0       0.28      1.09    diag
   4     -460.28925587      -0.00132652     0.73D-03     0.18D-02     3     0       0.27      1.36    diag
   5     -460.28929812      -0.00004226     0.15D-03     0.29D-03     4     0       0.26      1.62    diag
   6     -460.28930543      -0.00000731     0.53D-04     0.12D-03     5     0       0.28      1.90    diag
   7     -460.28930557      -0.00000014     0.48D-05     0.19D-04     6     0       0.28      2.18    diag
   8     -460.28930558      -0.00000001     0.14D-05     0.45D-05     7     0       0.26      2.44    fixocc
   9     -460.28930559      -0.00000000     0.65D-06     0.18D-05     8     0       0.28      2.72    diag
  10     -460.28930559      -0.00000000     0.26D-06     0.60D-06     0     0       0.29      3.01    diag/orth

 Final occupancy:  12   9   9  11

 !RHF STATE 1.1 Energy               -460.289305585591
  RHF One-electron energy           -1814.168929593539
  RHF Two-electron energy             752.528035114266
  RHF Kinetic energy                  460.036060384078
  RHF Nuclear energy                  601.351588893682
  RHF Virial quotient                  -1.000550489893

 !RHF STATE 1.1 Dipole moment           0.00000000     0.00000000     0.00000000
 Dipole moment /Debye                   0.00000000     0.00000000     0.00000000

 Orbital energies:

           1.1          2.1          3.1          4.1          5.1          6.1          7.1          8.1          9.1         10.1
    -11.247102   -11.239103   -11.237063   -11.236553    -1.171841    -1.055326    -0.852596    -0.718956    -0.653662    -0.584646

          11.1         12.1         13.1         14.1
     -0.483012    -0.336911     0.137259     0.185914

           1.2          2.2          3.2          4.2          5.2          6.2          7.2          8.2          9.2         10.2
    -11.238793   -11.236840    -1.021257    -0.842983    -0.639505    -0.590393    -0.501803    -0.490576    -0.299345     0.175456

          11.2
      0.210241

           1.3          2.3          3.3          4.3          5.3          6.3          7.3          8.3          9.3         10.3
    -11.238794   -11.236846    -1.012491    -0.810230    -0.605889    -0.580900    -0.516715    -0.480263    -0.367893     0.102102

          11.3
      0.228709

           1.4          2.4          3.4          4.4          5.4          6.4          7.4          8.4          9.4         10.4
    -11.246373   -11.239103   -11.237061   -11.236552    -1.143497    -0.983995    -0.790358    -0.680820    -0.614440    -0.519075

          11.4         12.4         13.4
     -0.336865     0.131021     0.191515


 HOMO      9.2    -0.299345 =      -8.1456eV
 LUMO     10.3     0.102102 =       2.7783eV
 LUMO-HOMO         0.401447 =      10.9239eV

 Orbitals saved in record  2100.2


 **********************************************************************************************************************************
 DATASETS  * FILE   NREC   LENGTH (MB)   RECORD NAMES
              1      19      323.49       500      610      700      900      950      970     1000      129      960     1100   
                                          VAR    BASINP    GEOM    SYMINP    ZMAT    AOBASIS   BASIS     P2S    ABASIS      S 
                                         1400     1410     1200     1210     1080     1600     1650     1300     1700   
                                           T        V       H0       H01     AOSYM     SMH    MOLCAS    ERIS     OPER   

              2       4        0.95       700     1000      520     2100   
                                         GEOM     BASIS   MCVARS     RHF  

 PROGRAMS   *        TOTAL    HF-SCF       INT
 CPU TIMES  *        34.38      3.01     31.24
 REAL TIME  *        38.72 SEC
 DISK USED  *         1.18 GB
 **********************************************************************************************************************************


 PROGRAM * MP4 (Closed-shell)     Authors: C. Hampel, H.-J. Werner, 1991, M. Deegan, P.J. Knowles, 1992


 Convergence thresholds:  THRVAR = 1.00D-08  THRDEN = 1.00D-06

 MP4(T)     terms to be evaluated (factor= 0.000)


 Number of core orbitals:          12 (   4   2   2   4 )
 Number of closed-shell orbitals:  29 (   8   7   7   7 )
 Number of external orbitals:     177 (  45  43  43  46 )

 Molecular orbitals read from record     2100.2  Type=RHF/CANONICAL  

 Number of N-1 electron functions:              29
 Number of N-2 electron functions:             435
 Number of singly external CSFs:              1284
 Number of doubly external CSFs:           3296031
 Total number of CSFs:                     3297316

 Length of J-op  integral file:               0.00 MB
 Length of K-op  integral file:               0.88 MB

 Memory could be reduced to 50.42 Mwords without degradation in triples

 Integral transformation finished. Total CPU:   5.03 sec, npass=  1  Memory used:  18.31 MW

 Reference energy:                   -460.28930559

                        CORR.ENERGY   TOTAL ENERGY   ENERGY CHANGE
 MP2:                   -1.55850256  -461.84780815    -1.55850256

 SCS-MP2 correlation energy:           -1.50641781   (PS=  1.200000  PT=  0.333333)
 SCS-MP2 total energy:               -461.79572340

 MP3(D):                -1.61075823  -461.90006382    -0.05225567
 MP4(DQ):               -1.60668949  -461.89599507     0.00406874
 MP4(SDQ):              -1.61826759  -461.90757317    -0.01157810

 Norm of t1 vector:      0.09099757      S-energy:    -0.01157810      T1 diagnostic:  0.00844891


 Total CPU time for triples:    316.73 sec


 RESULTS
 =======

  Reference energy                   -460.289305585591
  MP4(SDQ) singlet pair energy         -1.030374893128
  MP4(SDQ) triplet pair energy         -0.576314595670
  MP4(SDQ) correlation energy          -1.618267587093

  Triples contribution                 -0.082260270869
  Total correlation energy             -1.700527857962

  MP4(SDQ) total energy              -461.907573172684
 !MP4(SDTQ) total energy             -461.989833443553

 Timing summary (sec):

 STEP                 CPU(USER)    SYS     CPU(TOT)    WALL
 Transformation          5.21      0.68      5.89      6.53
 CCSD iterations        55.83      0.42     56.25     22.01
 Triples               316.73     17.96    334.69    337.70

 Program statistics:

 Available memory in ccsd:               805302992
 Min. memory needed in ccsd:               7946885
 Max. memory used in ccsd:                11010725
 Max. memory used in cckext:              10750965 ( 1 integral passes)



 **********************************************************************************************************************************
 DATASETS  * FILE   NREC   LENGTH (MB)   RECORD NAMES
              1      20      537.17       500      610      700      900      950      970     1000      129      960     1100   
                                          VAR    BASINP    GEOM    SYMINP    ZMAT    AOBASIS   BASIS     P2S    ABASIS      S 
                                         1400     1410     1200     1210     1080     1600     1650     1300     1700     1380   
                                           T        V       H0       H01     AOSYM     SMH    MOLCAS    ERIS     OPER     JKOP   

              2       4        0.95       700     1000      520     2100   
                                         GEOM     BASIS   MCVARS     RHF  

 PROGRAMS   *        TOTAL       MP4    HF-SCF       INT
 CPU TIMES  *       377.54    343.15      3.01     31.24
 REAL TIME  *       405.01 SEC
 DISK USED  *         1.18 GB
 **********************************************************************************************************************************

 Dump information in style XML to xml output                                                                      

 Orbitals will not be exported.

 **********************************************************************************************************************************

 MP4/cc-pVDZ energy=   -461.989833443553

             MP4          HF-SCF
   -461.98983344   -460.28930559
 **********************************************************************************************************************************
 Molpro calculation terminated
