
 Working directory              : /home/jovyan/scratch/molpro.742b3RJQMe/
 Global scratch directory       : /home/jovyan/scratch/molpro.742b3RJQMe/
 Wavefunction directory         : /home/jovyan/wfu/
 Main file repository           : /home/jovyan/scratch/molpro.742b3RJQMe/

 id        : cardiff

 Nodes                nprocs
 jupyter-c-2efrancisan    1
 GA implementation: MPI file
 GA implementation (serial work in mppx): MPI file

 Using customized tuning parameters: mindgm=1; mindgv=20; mindgc=4; mindgr=1; noblas=0; minvec=7
 default implementation of scratch files=df  


 Variables initialized (1031), CPU time= 0.01 sec
 
 
 
 geometry={
 7
    C   -0.02390885627557     -0.05302641663315     -0.10745866578343
    N   0.00092066825824      0.00365468344940      1.44477708016972
    H   0.94208618779814     -0.01259041963198      1.82514474753541
    H   -0.46202504306172      0.82039651080639      1.83220555804372
    H   -0.47773812151175     -0.80605899270518      1.81564860500214
    H   -0.49462389264234      0.88965947573447     -0.38874381678550
    H   1.02864905743500      0.04713015898005     -0.37957750818206
 }
 basis=cc-pVDZ
 angstrom
 
 
 hf; ccsd
 
 
 
 {put,xml;noorbitals,nobasis}
 Commands initialized (841), CPU time= 0.01 sec, 704 directives.
 Default parameters read. Elapsed time= 0.09 sec

 Checking input...
 Passed
1


                                         ***  PROGRAM SYSTEM MOLPRO  ***
                                       Copyright, TTI GmbH Stuttgart, 2015
                                    Version 2023.1 linked Mon Jun  5 13:27:10 2023


 **********************************************************************************************************************************
 LABEL *                                                                                                                                                                 
  (16 PROC) 64 bit serial version                                                        DATE: 04-Aug-23          TIME: 06:11:16  
 **********************************************************************************************************************************

 SHA1:             9738a14712571edd23541b6d7c4f3a3d766f8287
 **********************************************************************************************************************************

 Memory per process:       805 MW
 Total memory per node:   1074 MW
 Total GA space:           268 MW

 GA preallocation disabled
 GA check enabled

 Geometry recognized as XYZ


 Variable memory set to 805.3 MW

 SETTING BASIS          =    CC-PVDZ


 Recomputing integrals since basis changed


 Using spherical harmonics

 Library entry C      S cc-pVDZ              selected for orbital group  1
 Library entry C      P cc-pVDZ              selected for orbital group  1
 Library entry C      D cc-pVDZ              selected for orbital group  1
 Library entry N      S cc-pVDZ              selected for orbital group  2
 Library entry N      P cc-pVDZ              selected for orbital group  2
 Library entry N      D cc-pVDZ              selected for orbital group  2
 Library entry H      S cc-pVDZ              selected for orbital group  3
 Library entry H      P cc-pVDZ              selected for orbital group  3


 PROGRAM * SEWARD (Integral evaluation for generally contracted gaussian basis sets)     Author: Roland Lindh, 1990

 Geometry written to block  1 of record 700


 Point group  C1  



 ATOMIC COORDINATES

 NR  ATOM    CHARGE       X              Y              Z

   1  C       6.00   -0.045181190   -0.100205405   -0.203067448
   2  N       7.00    0.001739811    0.006906351    2.730232993
   3  H       1.00    1.780284881   -0.023792445    3.449023711
   4  H       1.00   -0.873100794    1.550324719    3.462366709
   5  H       1.00   -0.902794209   -1.523230737    3.431078602
   6  H       1.00   -0.934703692    1.681212753   -0.734619346
   7  H       1.00    1.943864997    0.089063093   -0.717297534

 Bond lengths in Bohr (Angstrom)

 1-2  2.935630424  1-6  2.060885333  1-7  2.063143204  2-3  1.918547648  2-4  1.919246238
     ( 1.553468720)     ( 1.090573552)     ( 1.091768366)     ( 1.015251693)     ( 1.015621371)

 2-5  1.910676809
     ( 1.011086625)

 Bond angles

  1-2-3  112.86675045   1-2-4  113.77981822   1-2-5  109.25221902   2-1-6  103.47841796

  2-1-7  103.31424331   3-2-4  107.00834166   3-2-5  106.77565637   4-2-5  106.75608785

  6-1-7  105.81521240

 NUCLEAR CHARGE:                   18
 NUMBER OF PRIMITIVE AOS:          89
 NUMBER OF SYMMETRY AOS:           87
 NUMBER OF CONTRACTIONS:           53   (   53A   )
 NUMBER OF INNER CORE ORBITALS:     0   (    0A   )
 NUMBER OF OUTER CORE ORBITALS:     2   (    2A   )
 NUMBER OF VALENCE ORBITALS:       13   (   13A   )


 NUCLEAR REPULSION ENERGY   41.57132300

 Eigenvalues of metric

         1 0.716E-02 0.170E-01 0.301E-01 0.337E-01 0.361E-01 0.382E-01 0.447E-01 0.499E-01


 Contracted 2-electron integrals neglected if value below      1.0D-11
 AO integral compression algorithm  1   Integral accuracy      1.0D-11

     5.767 MB (compressed) written to integral file ( 59.1%)


 NUMBER OF SORTED TWO-ELECTRON INTEGRALS:    1024596.     BUFFER LENGTH:  32768
 NUMBER OF SEGMENTS:   1  SEGMENT LENGTH:    1024596      RECORD LENGTH: 524288

 Memory used in sort:       1.58 MW

 SORT1 READ     1206537. AND WROTE     1014575. INTEGRALS IN      3 RECORDS. CPU TIME:     0.01 SEC, REAL TIME:     0.03 SEC
 SORT2 READ     1014575. AND WROTE     1024596. INTEGRALS IN     22 RECORDS. CPU TIME:     0.05 SEC, REAL TIME:     0.06 SEC

 FILE SIZES:   FILE 1:    36.0 MBYTE,  FILE 4:    12.6 MBYTE,   TOTAL:     48.6 MBYTE

 OPERATOR DM      FOR CENTER  0  COORDINATES:    0.000000    0.000000    0.000000


 **********************************************************************************************************************************
 DATASETS  * FILE   NREC   LENGTH (MB)   RECORD NAMES
              1      19       33.32       500      610      700      900      950      970     1000      129      960     1100   
                                          VAR    BASINP    GEOM    SYMINP    ZMAT    AOBASIS   BASIS     P2S    ABASIS      S 
                                         1400     1410     1200     1210     1080     1600     1650     1300     1700   
                                           T        V       H0       H01     AOSYM     SMH    MOLCAS    ERIS     OPER   

 PROGRAMS   *        TOTAL       INT
 CPU TIMES  *         0.71      0.58
 REAL TIME  *         1.83 SEC
 DISK USED  *        46.78 MB
 **********************************************************************************************************************************


 Program * Restricted Hartree-Fock

 Orbital guess generated from atomic densities. Full valence occupancy:   15

 Initial occupancy:   9

 NELEC=   18   SYM=1   MS2= 0   THRE=1.0D-08   THRD=3.2D-06   THRG=3.2D-06  HFMA2=F  DIIS_START=2   DIIS_MAX=10   DIIS_INCORE=F

 Level shifts:    0.00 (CLOSED)    0.00 (OPEN)    0.30 (GAP_MIN)

 ITER           ETOT              DE          GRAD        DDIFF     DIIS  NEXP   TIME(IT)  TIME(TOT)  DIAG
   1      -95.03431182     -95.03431182     0.00D+00     0.14D+00     0     0       0.02      0.03    start
   2      -95.09705300      -0.06274118     0.12D-01     0.24D-01     1     0       0.01      0.04    diag
   3      -95.10734136      -0.01028836     0.51D-02     0.86D-02     2     0       0.01      0.05    diag
   4      -95.10819791      -0.00085655     0.10D-02     0.23D-02     3     0       0.01      0.06    diag
   5      -95.10828999      -0.00009208     0.32D-03     0.71D-03     4     0       0.01      0.07    diag
   6      -95.10830446      -0.00001447     0.12D-03     0.32D-03     5     0       0.01      0.08    diag
   7      -95.10830648      -0.00000202     0.37D-04     0.12D-03     6     0       0.01      0.09    diag
   8      -95.10830670      -0.00000022     0.10D-04     0.39D-04     7     0       0.01      0.10    fixocc
   9      -95.10830672      -0.00000002     0.28D-05     0.11D-04     8     0       0.01      0.11    diag
  10      -95.10830672      -0.00000000     0.67D-06     0.29D-05     9     0       0.01      0.12    diag/orth
  11      -95.10830672      -0.00000000     0.13D-06     0.40D-06     0     0       0.01      0.13    diag

 Final occupancy:   9

 !RHF STATE 1.1 Energy                -95.108306718677
  RHF One-electron energy            -210.046729294582
  RHF Two-electron energy              73.367099577105
  RHF Kinetic energy                   95.049410627911
  RHF Nuclear energy                   41.571322998799
  RHF Virial quotient                  -1.000619636570

 !RHF STATE 1.1 Dipole moment           0.29566492     0.54647391     2.20519530
 Dipole moment /Debye                   0.75150526     1.38899812     5.60504738

 Orbital energies:

           1.1          2.1          3.1          4.1          5.1          6.1          7.1          8.1          9.1         10.1
    -15.664494   -11.151435    -1.266431    -0.844744    -0.734327    -0.727670    -0.552337    -0.461581    -0.253248     0.139571

          11.1
      0.204328


 HOMO      9.1    -0.253248 =      -6.8912eV
 LUMO     10.1     0.139571 =       3.7979eV
 LUMO-HOMO         0.392818 =      10.6891eV

 Orbitals saved in record  2100.2


 **********************************************************************************************************************************
 DATASETS  * FILE   NREC   LENGTH (MB)   RECORD NAMES
              1      19       33.32       500      610      700      900      950      970     1000      129      960     1100   
                                          VAR    BASINP    GEOM    SYMINP    ZMAT    AOBASIS   BASIS     P2S    ABASIS      S 
                                         1400     1410     1200     1210     1080     1600     1650     1300     1700   
                                           T        V       H0       H01     AOSYM     SMH    MOLCAS    ERIS     OPER   

              2       4        0.52       700     1000      520     2100   
                                         GEOM     BASIS   MCVARS     RHF  

 PROGRAMS   *        TOTAL    HF-SCF       INT
 CPU TIMES  *         0.84      0.13      0.58
 REAL TIME  *         1.99 SEC
 DISK USED  *        46.78 MB
 **********************************************************************************************************************************


 PROGRAM * CCSD (Closed-shell coupled cluster)     Authors: C. Hampel, H.-J. Werner, 1991, M. Deegan, P.J. Knowles, 1992


 Convergence thresholds:  THRVAR = 1.00D-08  THRDEN = 1.00D-06

 Number of core orbitals:           2 (   2 )
 Number of closed-shell orbitals:   7 (   7 )
 Number of external orbitals:      44 (  44 )

 Molecular orbitals read from record     2100.2  Type=RHF/CANONICAL  

 Number of N-1 electron functions:               7
 Number of N-2 electron functions:              28
 Number of singly external CSFs:               308
 Number of doubly external CSFs:             47586
 Total number of CSFs:                       47895

 Length of J-op  integral file:               0.00 MB
 Length of K-op  integral file:               0.26 MB
 Length of 3-ext integral record:             0.00 MB

 Integral transformation finished. Total CPU:   0.04 sec, npass=  1  Memory used:   0.85 MW

 Reference energy:                    -95.10830672

 MP2 singlet pair energy:              -0.21549005
 MP2 triplet pair energy:              -0.11010917
 MP2 correlation energy:               -0.32559921
 MP2 total energy:                    -95.43390593

 SCS-MP2 correlation energy:           -0.32710042   (PS=  1.200000  PT=  0.333333)
 SCS-MP2 total energy:                -95.43540714

 ITER.      SQ.NORM     CORR.ENERGY   TOTAL ENERGY   ENERGY CHANGE        DEN1      VAR(S)    VAR(P)  DIIS     TIME  TIME/IT
   1      1.12008200    -0.35452575   -95.46283247    -0.02892654    -0.01987961  0.72D-03  0.19D-02  1  1     1.19     0.09
   2      1.13042565    -0.35689242   -95.46519914    -0.00236667    -0.01013349  0.25D-04  0.14D-03  2  2     1.26     0.09
   3      1.13256516    -0.35704248   -95.46534920    -0.00015006    -0.00116347  0.10D-04  0.91D-05  3  3     1.34     0.09
   4      1.13321915    -0.35707094   -95.46537766    -0.00002846    -0.00023926  0.23D-05  0.93D-06  4  4     1.41     0.09
   5      1.13339887    -0.35707214   -95.46537886    -0.00000120    -0.00004312  0.11D-05  0.18D-06  5  5     1.49     0.09
   6      1.13348652    -0.35707219   -95.46537891    -0.00000005    -0.00000811  0.42D-06  0.64D-07  6  6     1.57     0.09
   7      1.13357135    -0.35707252   -95.46537924    -0.00000033    -0.00000654  0.72D-07  0.13D-07  6  1     1.65     0.09
   8      1.13360657    -0.35707266   -95.46537938    -0.00000014     0.00000050  0.89D-08  0.20D-08  6  2     1.73     0.09
   9      1.13361519    -0.35707259   -95.46537931     0.00000007    -0.00000060  0.18D-08  0.31D-09  6  3     1.81     0.09

 Norm of t1 vector:      0.04376881      S-energy:     0.00000031      T1 diagnostic:  0.00827153
                                                                       D1 diagnostic:  0.01964824
                                                                       D2 diagnostic:  0.14372848 (internal)

 Doubles amplitudes (print threshold =  0.500E-01):

         I         J         SYM. A    SYM. B    A         B      T(IJ, AB)

         7         7         1         1        11        11     -0.05000809


 RESULTS
 =======

  Reference energy                    -95.108306718677
  CCSD singlet pair energy             -0.255351157866
  CCSD triplet pair energy             -0.101721742914
  CCSD correlation energy              -0.357072591015

 !CCSD total energy                   -95.465379309692

 Timing summary (sec):

 STEP                 CPU(USER)    SYS     CPU(TOT)    WALL
 Transformation          0.04      0.02      0.06      0.07
 CCSD iterations         1.78      0.09      1.87      0.84

 Program statistics:

 Available memory in ccsd:               805306163
 Min. memory needed in ccsd:                169752
 Max. memory used in ccsd:                  204605
 Max. memory used in cckext:                210077 ( 9 integral passes)



 **********************************************************************************************************************************
 DATASETS  * FILE   NREC   LENGTH (MB)   RECORD NAMES
              1      20       36.59       500      610      700      900      950      970     1000      129      960     1100   
                                          VAR    BASINP    GEOM    SYMINP    ZMAT    AOBASIS   BASIS     P2S    ABASIS      S 
                                         1400     1410     1200     1210     1080     1600     1650     1300     1700     1380   
                                           T        V       H0       H01     AOSYM     SMH    MOLCAS    ERIS     OPER     JKOP   

              2       4        0.52       700     1000      520     2100   
                                         GEOM     BASIS   MCVARS     RHF  

 PROGRAMS   *        TOTAL      CCSD    HF-SCF       INT
 CPU TIMES  *         1.64      0.79      0.13      0.58
 REAL TIME  *         2.95 SEC
 DISK USED  *        46.78 MB
 **********************************************************************************************************************************

 Dump information in style XML to xml output                                                                      

 Orbitals will not be exported.

 **********************************************************************************************************************************

 CCSD/cc-pVDZ energy=    -95.465379309692

            CCSD          HF-SCF
    -95.46537931    -95.10830672
 **********************************************************************************************************************************
 Molpro calculation terminated
