
 Working directory              : /home/jovyan/scratch/molpro.VDZVXxiuMS/
 Global scratch directory       : /home/jovyan/scratch/molpro.VDZVXxiuMS/
 Wavefunction directory         : /home/jovyan/wfu/
 Main file repository           : /home/jovyan/scratch/molpro.VDZVXxiuMS/

 id        : cardiff

 Nodes                nprocs
 jupyter-c-2efrancisan    1
 GA implementation: MPI file
 GA implementation (serial work in mppx): MPI file

 Using customized tuning parameters: mindgm=1; mindgv=20; mindgc=4; mindgr=1; noblas=0; minvec=7
 default implementation of scratch files=df  


 Variables initialized (1031), CPU time= 0.00 sec
 
 
 
 geometry={
 5
    N   -0.03584975865471     -0.04327420043232     -0.01909653330203
    O   -0.00506609630306      0.04228356956699      1.40258952423515
    H   0.93668394242907     -0.00324232973676     -0.29970354802110
    H   -0.45177475304937      0.83035713913816     -0.31299415647016
    H   -0.41664833442194     -0.77876717853606      1.67387371355814
 }
 basis=cc-pVDZ
 angstrom
 
 
 hf; ccsd
 
 
 
 {put,xml;noorbitals,nobasis}
 Commands initialized (841), CPU time= 0.01 sec, 704 directives.
 Default parameters read. Elapsed time= 0.08 sec

 Checking input...
 Passed
1


                                         ***  PROGRAM SYSTEM MOLPRO  ***
                                       Copyright, TTI GmbH Stuttgart, 2015
                                    Version 2023.1 linked Mon Jun  5 13:27:10 2023


 **********************************************************************************************************************************
 LABEL *                                                                                                                                                                 
  (16 PROC) 64 bit serial version                                                        DATE: 04-Aug-23          TIME: 06:06:52  
 **********************************************************************************************************************************

 SHA1:             9738a14712571edd23541b6d7c4f3a3d766f8287
 **********************************************************************************************************************************

 Memory per process:       805 MW
 Total memory per node:   1074 MW
 Total GA space:           268 MW

 GA preallocation disabled
 GA check enabled

 Geometry recognized as XYZ


 Variable memory set to 805.3 MW

 SETTING BASIS          =    CC-PVDZ


 Recomputing integrals since basis changed


 Using spherical harmonics

 Library entry N      S cc-pVDZ              selected for orbital group  1
 Library entry N      P cc-pVDZ              selected for orbital group  1
 Library entry N      D cc-pVDZ              selected for orbital group  1
 Library entry O      S cc-pVDZ              selected for orbital group  2
 Library entry O      P cc-pVDZ              selected for orbital group  2
 Library entry O      D cc-pVDZ              selected for orbital group  2
 Library entry H      S cc-pVDZ              selected for orbital group  3
 Library entry H      P cc-pVDZ              selected for orbital group  3


 PROGRAM * SEWARD (Integral evaluation for generally contracted gaussian basis sets)     Author: Roland Lindh, 1990

 Geometry written to block  1 of record 700


 Point group  C1  



 ATOMIC COORDINATES

 NR  ATOM    CHARGE       X              Y              Z

   1  N       7.00   -0.067746225   -0.081776387   -0.036087218
   2  O       8.00   -0.009573535    0.079904366    2.650510066
   3  H       1.00    1.770076117   -0.006127115   -0.566357624
   4  H       1.00   -0.853730553    1.569147579   -0.591473234
   5  H       1.00   -0.787351242   -1.471656682    3.163162886

 Bond lengths in Bohr (Angstrom)

 1-2  2.692086495  1-3  1.914288504  1-4  1.910961782  2-5  1.809721736
     ( 1.424590823)     ( 1.012997851)     ( 1.011237426)     ( 0.957663501)

 Bond angles

  1-2-5  102.82195619   2-1-3  104.67422078   2-1-4  104.30251315   3-1-4  106.27369107

 NUCLEAR CHARGE:                   18
 NUMBER OF PRIMITIVE AOS:          75
 NUMBER OF SYMMETRY AOS:           73
 NUMBER OF CONTRACTIONS:           43   (   43A   )
 NUMBER OF INNER CORE ORBITALS:     0   (    0A   )
 NUMBER OF OUTER CORE ORBITALS:     2   (    2A   )
 NUMBER OF VALENCE ORBITALS:       11   (   11A   )


 NUCLEAR REPULSION ENERGY   39.60914823

 Eigenvalues of metric

         1 0.917E-02 0.208E-01 0.383E-01 0.418E-01 0.450E-01 0.765E-01 0.771E-01 0.123E+00


 Contracted 2-electron integrals neglected if value below      1.0D-11
 AO integral compression algorithm  1   Integral accuracy      1.0D-11

     2.621 MB (compressed) written to integral file ( 61.7%)


 NUMBER OF SORTED TWO-ELECTRON INTEGRALS:     447931.     BUFFER LENGTH:  32768
 NUMBER OF SEGMENTS:   1  SEGMENT LENGTH:     447931      RECORD LENGTH: 524288

 Memory used in sort:       1.00 MW

 SORT1 READ      553316. AND WROTE      438088. INTEGRALS IN      2 RECORDS. CPU TIME:     0.01 SEC, REAL TIME:     0.12 SEC
 SORT2 READ      438088. AND WROTE      447931. INTEGRALS IN     10 RECORDS. CPU TIME:     0.03 SEC, REAL TIME:     0.03 SEC

 FILE SIZES:   FILE 1:    32.7 MBYTE,  FILE 4:     8.5 MBYTE,   TOTAL:     41.2 MBYTE

 OPERATOR DM      FOR CENTER  0  COORDINATES:    0.000000    0.000000    0.000000


 **********************************************************************************************************************************
 DATASETS  * FILE   NREC   LENGTH (MB)   RECORD NAMES
              1      19       30.72       500      610      700      900      950      970     1000      129      960     1100   
                                          VAR    BASINP    GEOM    SYMINP    ZMAT    AOBASIS   BASIS     P2S    ABASIS      S 
                                         1400     1410     1200     1210     1080     1600     1650     1300     1700   
                                           T        V       H0       H01     AOSYM     SMH    MOLCAS    ERIS     OPER   

 PROGRAMS   *        TOTAL       INT
 CPU TIMES  *         0.62      0.48
 REAL TIME  *         1.81 SEC
 DISK USED  *        39.67 MB
 **********************************************************************************************************************************


 Program * Restricted Hartree-Fock

 Orbital guess generated from atomic densities. Full valence occupancy:   13

 Initial occupancy:   9

 NELEC=   18   SYM=1   MS2= 0   THRE=1.0D-08   THRD=3.2D-06   THRG=3.2D-06  HFMA2=F  DIIS_START=2   DIIS_MAX=10   DIIS_INCORE=F

 Level shifts:    0.00 (CLOSED)    0.00 (OPEN)    0.30 (GAP_MIN)

 ITER           ETOT              DE          GRAD        DDIFF     DIIS  NEXP   TIME(IT)  TIME(TOT)  DIAG
   1     -130.96853074    -130.96853074     0.00D+00     0.18D+00     0     0       0.00      0.01    start
   2     -130.99390448      -0.02537374     0.10D-01     0.21D-01     1     0       0.01      0.02    diag
   3     -130.99700487      -0.00310039     0.39D-02     0.61D-02     2     0       0.00      0.02    diag
   4     -130.99744927      -0.00044440     0.12D-02     0.20D-02     3     0       0.01      0.03    diag
   5     -130.99747867      -0.00002940     0.24D-03     0.53D-03     4     0       0.00      0.03    diag
   6     -130.99748065      -0.00000198     0.55D-04     0.12D-03     5     0       0.01      0.04    diag
   7     -130.99748100      -0.00000035     0.23D-04     0.54D-04     6     0       0.00      0.04    diag
   8     -130.99748104      -0.00000004     0.58D-05     0.19D-04     7     0       0.01      0.05    fixocc
   9     -130.99748104      -0.00000000     0.16D-05     0.51D-05     8     0       0.00      0.05    diag
  10     -130.99748104      -0.00000000     0.42D-06     0.14D-05     9     0       0.01      0.06    diag/orth
  11     -130.99748104      -0.00000000     0.85D-07     0.16D-06     0     0       0.00      0.06    diag

 Final occupancy:   9

 !RHF STATE 1.1 Energy               -130.997481042823
  RHF One-electron energy            -258.232673269285
  RHF Two-electron energy              87.626044001243
  RHF Kinetic energy                  130.915051579969
  RHF Nuclear energy                   39.609148225220
  RHF Virial quotient                  -1.000629640839

 !RHF STATE 1.1 Dipole moment           0.04891420    -0.02125240    -0.28502176
 Dipole moment /Debye                   0.12432751    -0.05401821    -0.72445306

 Orbital energies:

           1.1          2.1          3.1          4.1          5.1          6.1          7.1          8.1          9.1         10.1
    -20.575165   -15.598720    -1.391622    -1.073275    -0.684430    -0.667141    -0.610355    -0.472227    -0.417359     0.193924

          11.1
      0.213258


 HOMO      9.1    -0.417359 =     -11.3569eV
 LUMO     10.1     0.193924 =       5.2769eV
 LUMO-HOMO         0.611283 =      16.6339eV

 Orbitals saved in record  2100.2


 **********************************************************************************************************************************
 DATASETS  * FILE   NREC   LENGTH (MB)   RECORD NAMES
              1      19       30.72       500      610      700      900      950      970     1000      129      960     1100   
                                          VAR    BASINP    GEOM    SYMINP    ZMAT    AOBASIS   BASIS     P2S    ABASIS      S 
                                         1400     1410     1200     1210     1080     1600     1650     1300     1700   
                                           T        V       H0       H01     AOSYM     SMH    MOLCAS    ERIS     OPER   

              2       4        0.47       700     1000      520     2100   
                                         GEOM     BASIS   MCVARS     RHF  

 PROGRAMS   *        TOTAL    HF-SCF       INT
 CPU TIMES  *         0.69      0.07      0.48
 REAL TIME  *         1.97 SEC
 DISK USED  *        39.67 MB
 **********************************************************************************************************************************


 PROGRAM * CCSD (Closed-shell coupled cluster)     Authors: C. Hampel, H.-J. Werner, 1991, M. Deegan, P.J. Knowles, 1992


 Convergence thresholds:  THRVAR = 1.00D-08  THRDEN = 1.00D-06

 Number of core orbitals:           2 (   2 )
 Number of closed-shell orbitals:   7 (   7 )
 Number of external orbitals:      34 (  34 )

 Molecular orbitals read from record     2100.2  Type=RHF/CANONICAL  

 Number of N-1 electron functions:               7
 Number of N-2 electron functions:              28
 Number of singly external CSFs:               238
 Number of doubly external CSFs:             28441
 Total number of CSFs:                       28680

 Length of J-op  integral file:               0.00 MB
 Length of K-op  integral file:               0.19 MB
 Length of 3-ext integral record:             0.00 MB

 Integral transformation finished. Total CPU:   0.02 sec, npass=  1  Memory used:   0.51 MW

 Reference energy:                   -130.99748104

 MP2 singlet pair energy:              -0.22908334
 MP2 triplet pair energy:              -0.13617551
 MP2 correlation energy:               -0.36525885
 MP2 total energy:                   -131.36273989

 SCS-MP2 correlation energy:           -0.35963144   (PS=  1.200000  PT=  0.333333)
 SCS-MP2 total energy:               -131.35711248

 ITER.      SQ.NORM     CORR.ENERGY   TOTAL ENERGY   ENERGY CHANGE        DEN1      VAR(S)    VAR(P)  DIIS     TIME  TIME/IT
   1      1.10727214    -0.38278616  -131.38026720    -0.01752731    -0.00897649  0.87D-03  0.17D-02  1  1     1.00     0.05
   2      1.11522808    -0.38477892  -131.38225997    -0.00199276    -0.00888308  0.25D-04  0.19D-03  2  2     1.05     0.05
   3      1.11746955    -0.38493429  -131.38241533    -0.00015536    -0.00146368  0.83D-05  0.99D-05  3  3     1.09     0.05
   4      1.11812171    -0.38495057  -131.38243161    -0.00001628    -0.00031719  0.64D-06  0.81D-06  4  4     1.13     0.05
   5      1.11825323    -0.38495111  -131.38243215    -0.00000054    -0.00004534  0.18D-06  0.75D-07  5  5     1.18     0.05
   6      1.11828279    -0.38494933  -131.38243037     0.00000178    -0.00000452  0.29D-07  0.81D-08  6  6     1.23     0.05
   7      1.11829124    -0.38494939  -131.38243044    -0.00000006     0.00000023  0.37D-08  0.13D-08  6  2     1.28     0.05
   8      1.11829417    -0.38494925  -131.38243029     0.00000014    -0.00000034  0.55D-09  0.17D-09  6  1     1.32     0.05

 Norm of t1 vector:      0.04197435      S-energy:    -0.00000021      T1 diagnostic:  0.00793241
                                                                       D1 diagnostic:  0.01909263
                                                                       D2 diagnostic:  0.15030993 (internal)

 Doubles amplitudes (print threshold =  0.500E-01):

         I         J         SYM. A    SYM. B    A         B      T(IJ, AB)

         5         5         1         1         4         4     -0.05212119


 RESULTS
 =======

  Reference energy                   -130.997481042823
  CCSD singlet pair energy             -0.264048397800
  CCSD triplet pair energy             -0.120900641022
  CCSD correlation energy              -0.384949251240

 !CCSD total energy                  -131.382430294063

 Timing summary (sec):

 STEP                 CPU(USER)    SYS     CPU(TOT)    WALL
 Transformation          0.03      0.00      0.03      0.03
 CCSD iterations         1.30      0.04      1.34      0.43

 Program statistics:

 Available memory in ccsd:               805306163
 Min. memory needed in ccsd:                106355
 Max. memory used in ccsd:                  126018
 Max. memory used in cckext:                150917 ( 8 integral passes)



 **********************************************************************************************************************************
 DATASETS  * FILE   NREC   LENGTH (MB)   RECORD NAMES
              1      20       32.42       500      610      700      900      950      970     1000      129      960     1100   
                                          VAR    BASINP    GEOM    SYMINP    ZMAT    AOBASIS   BASIS     P2S    ABASIS      S 
                                         1400     1410     1200     1210     1080     1600     1650     1300     1700     1380   
                                           T        V       H0       H01     AOSYM     SMH    MOLCAS    ERIS     OPER     JKOP   

              2       4        0.47       700     1000      520     2100   
                                         GEOM     BASIS   MCVARS     RHF  

 PROGRAMS   *        TOTAL      CCSD    HF-SCF       INT
 CPU TIMES  *         1.13      0.44      0.07      0.48
 REAL TIME  *         2.47 SEC
 DISK USED  *        39.67 MB
 **********************************************************************************************************************************

 Dump information in style XML to xml output                                                                      

 Orbitals will not be exported.

 **********************************************************************************************************************************

 CCSD/cc-pVDZ energy=   -131.382430294063

            CCSD          HF-SCF
   -131.38243029   -130.99748104
 **********************************************************************************************************************************
 Molpro calculation terminated
