
 Working directory              : /home/jovyan/scratch/molpro.7OyHLije6p/
 Global scratch directory       : /home/jovyan/scratch/molpro.7OyHLije6p/
 Wavefunction directory         : /home/jovyan/wfu/
 Main file repository           : /home/jovyan/scratch/molpro.7OyHLije6p/

 id        : cardiff

 Nodes                nprocs
 jupyter-c-2efrancisan    1
 GA implementation: MPI file
 GA implementation (serial work in mppx): MPI file

 Using customized tuning parameters: mindgm=1; mindgv=20; mindgc=4; mindgr=1; noblas=0; minvec=7
 default implementation of scratch files=df  


 Variables initialized (1031), CPU time= 0.01 sec
 
 
 
 geometry={
           12
     C          0.70338207      0.41072619     -0.43358139
     O          1.38149083      0.42641087     -1.45571311
     C         -0.26121262     -0.72702314     -0.09377997
     H         -1.04013345     -0.37584786      0.60160992
     H          0.32785958     -1.48083385      0.45638787
     N          0.78095173      1.40866259      0.50263688
     H          0.23673184      1.39536412      1.35566886
     H          1.45273932      2.15458782      0.35799207
     C         -0.88042004     -1.35872278     -1.34035635
     H         -1.46910601     -2.24747287     -1.07535319
     H         -1.54325977     -0.65017538     -1.85613339
     H         -0.09397911     -1.65231338     -2.04644039
 }
 basis=cc-pVDZ
 angstrom
 
 
 hf; mp2
 
 
 
 {put,xml;noorbitals,nobasis}
 Commands initialized (841), CPU time= 0.01 sec, 704 directives.
 Default parameters read. Elapsed time= 0.09 sec

 Checking input...
 Passed
1


                                         ***  PROGRAM SYSTEM MOLPRO  ***
                                       Copyright, TTI GmbH Stuttgart, 2015
                                    Version 2023.1 linked Mon Jun  5 13:27:10 2023


 **********************************************************************************************************************************
 LABEL *                                                                                                                                                                 
  (16 PROC) 64 bit serial version                                                        DATE: 03-Aug-23          TIME: 10:16:13  
 **********************************************************************************************************************************

 SHA1:             9738a14712571edd23541b6d7c4f3a3d766f8287
 **********************************************************************************************************************************

 Memory per process:       805 MW
 Total memory per node:   1074 MW
 Total GA space:           268 MW

 GA preallocation disabled
 GA check enabled

 Geometry recognized as XYZ


 Variable memory set to 805.3 MW

 SETTING BASIS          =    CC-PVDZ


 Recomputing integrals since basis changed


 Using spherical harmonics

 Library entry C      S cc-pVDZ              selected for orbital group  1
 Library entry C      P cc-pVDZ              selected for orbital group  1
 Library entry C      D cc-pVDZ              selected for orbital group  1
 Library entry O      S cc-pVDZ              selected for orbital group  2
 Library entry O      P cc-pVDZ              selected for orbital group  2
 Library entry O      D cc-pVDZ              selected for orbital group  2
 Library entry H      S cc-pVDZ              selected for orbital group  4
 Library entry H      P cc-pVDZ              selected for orbital group  4
 Library entry N      S cc-pVDZ              selected for orbital group  5
 Library entry N      P cc-pVDZ              selected for orbital group  5
 Library entry N      D cc-pVDZ              selected for orbital group  5


 PROGRAM * SEWARD (Integral evaluation for generally contracted gaussian basis sets)     Author: Roland Lindh, 1990

 Geometry written to block  1 of record 700


 Point group  C1  



 ATOMIC COORDINATES

 NR  ATOM    CHARGE       X              Y              Z

   1  C       6.00    1.329199473    0.776160011   -0.819350080
   2  O       8.00    2.610639312    0.805799761   -2.750899094
   3  C       6.00   -0.493620312   -1.373874621   -0.177218459
   4  H       1.00   -1.965567354   -0.710249520    1.136877983
   5  H       1.00    0.619564814   -2.798370413    0.862448081
   6  N       7.00    1.475784886    2.661986497    0.949846043
   7  H       1.00    0.447358343    2.636856031    2.561842861
   8  H       1.00    2.745279445    4.071580891    0.676506967
   9  C       6.00   -1.663752750   -2.567613933   -2.532906411
  10  H       1.00   -2.776208007   -4.247108197   -2.032123016
  11  H       1.00   -2.916338304   -1.228653401   -3.507583758
  12  H       1.00   -0.177594779   -3.122419760   -3.867211867

 Bond lengths in Bohr (Angstrom)

 1-2  2.318156200  1-3  2.890960724  1-6  2.589958251  3-4  2.081796298  3-5  2.085491764
     ( 1.226715433)     ( 1.529830533)     ( 1.370546883)     ( 1.101639159)     ( 1.103594715)

  3- 9  2.888509857   6- 7  1.912283043   6- 8  1.916582125   9-10  2.075823135   9-11  2.076483038
       ( 1.528533590)       ( 1.011936607)       ( 1.014211583)       ( 1.098478297)       ( 1.098827503)

  9-12  2.072883516
       ( 1.096922718)

 Bond angles

  1-3-4  110.42292772   1-3-5  106.38934525   1-3-9  112.43492444   1-6-7  122.39982615

  1-6-8  118.39755609   2-1-3  122.89671791   2-1-6  121.90952833   3-1-6  115.18076692

  3- 9-10  110.77623531   3- 9-11  111.14215992   3- 9-12  110.18991458   4- 3- 5  106.28796557

  4- 3- 9  111.10672695   5- 3- 9  109.90802516   7- 6- 8  119.08542163  10- 9-11  108.16000506

 10- 9-12  108.84219253  11- 9-12  107.63341888

 NUCLEAR CHARGE:                   40
 NUMBER OF PRIMITIVE AOS:         184
 NUMBER OF SYMMETRY AOS:          179
 NUMBER OF CONTRACTIONS:          105   (  105A   )
 NUMBER OF INNER CORE ORBITALS:     0   (    0A   )
 NUMBER OF OUTER CORE ORBITALS:     5   (    5A   )
 NUMBER OF VALENCE ORBITALS:       27   (   27A   )


 NUCLEAR REPULSION ENERGY  177.83006974


 Eigenvalues of metric

         1 0.270E-02 0.411E-02 0.664E-02 0.884E-02 0.169E-01 0.222E-01 0.258E-01 0.307E-01


 Contracted 2-electron integrals neglected if value below      1.0D-11
 AO integral compression algorithm  1   Integral accuracy      1.0D-11

     68.420 MB (compressed) written to integral file ( 51.1%)


 NUMBER OF SORTED TWO-ELECTRON INTEGRALS:   15487395.     BUFFER LENGTH:  32768
 NUMBER OF SEGMENTS:   1  SEGMENT LENGTH:   15487395      RECORD LENGTH: 524288

 Memory used in sort:      16.04 MW

 SORT1 READ    16747657. AND WROTE    14881940. INTEGRALS IN     43 RECORDS. CPU TIME:     0.18 SEC, REAL TIME:     2.44 SEC
 SORT2 READ    14881940. AND WROTE    15487395. INTEGRALS IN    261 RECORDS. CPU TIME:     0.31 SEC, REAL TIME:     0.39 SEC

 FILE SIZES:   FILE 1:    99.0 MBYTE,  FILE 4:   180.4 MBYTE,   TOTAL:    279.4 MBYTE

 OPERATOR DM      FOR CENTER  0  COORDINATES:    0.000000    0.000000    0.000000


 **********************************************************************************************************************************
 DATASETS  * FILE   NREC   LENGTH (MB)   RECORD NAMES
              1      19       87.31       500      610      700      900      950      970     1000      129      960     1100   
                                          VAR    BASINP    GEOM    SYMINP    ZMAT    AOBASIS   BASIS     P2S    ABASIS      S 
                                         1400     1410     1200     1210     1080     1600     1650     1300     1700   
                                           T        V       H0       H01     AOSYM     SMH    MOLCAS    ERIS     OPER   

 PROGRAMS   *        TOTAL       INT
 CPU TIMES  *         3.05      2.91
 REAL TIME  *        10.48 SEC
 DISK USED  *       267.02 MB
 **********************************************************************************************************************************


 Program * Restricted Hartree-Fock

 Orbital guess generated from atomic densities. Full valence occupancy:   32

 Initial occupancy:  20

 NELEC=   40   SYM=1   MS2= 0   THRE=1.0D-08   THRD=3.2D-06   THRG=3.2D-06  HFMA2=F  DIIS_START=2   DIIS_MAX=10   DIIS_INCORE=F

 Level shifts:    0.00 (CLOSED)    0.00 (OPEN)    0.30 (GAP_MIN)

 ITER           ETOT              DE          GRAD        DDIFF     DIIS  NEXP   TIME(IT)  TIME(TOT)  DIAG
   1     -246.91867425    -246.91867425     0.00D+00     0.11D+00     0     0       0.16      0.31    start
   2     -246.99080101      -0.07212677     0.79D-02     0.18D-01     1     0       0.16      0.47    diag
   3     -247.02994930      -0.03914829     0.56D-02     0.70D-02     2     0       0.16      0.63    diag
   4     -247.03219417      -0.00224487     0.91D-03     0.19D-02     3     0       0.15      0.78    diag
   5     -247.03243581      -0.00024164     0.28D-03     0.56D-03     4     0       0.16      0.94    diag
   6     -247.03247172      -0.00003591     0.82D-04     0.23D-03     5     0       0.16      1.10    diag
   7     -247.03247718      -0.00000545     0.35D-04     0.91D-04     6     0       0.16      1.26    diag
   8     -247.03247784      -0.00000066     0.13D-04     0.31D-04     7     0       0.16      1.42    fixocc
   9     -247.03247794      -0.00000010     0.49D-05     0.13D-04     8     0       0.16      1.58    diag
  10     -247.03247795      -0.00000001     0.12D-05     0.34D-05     9     0       0.15      1.73    diag/orth
  11     -247.03247795      -0.00000000     0.32D-06     0.75D-06     9     0       0.16      1.89    diag
  12     -247.03247795      -0.00000000     0.10D-06     0.22D-06     0     0       0.16      2.05    diag

 Final occupancy:  20

 !RHF STATE 1.1 Energy               -247.032477946917
  RHF One-electron energy            -688.360350419628
  RHF Two-electron energy             263.497802730485
  RHF Kinetic energy                  246.586496833471
  RHF Nuclear energy                  177.830069742227
  RHF Virial quotient                  -1.001808619366

 !RHF STATE 1.1 Dipole moment          -0.70605658     0.16902202     1.38545099
 Dipole moment /Debye                  -1.79461682     0.42961112     3.52146516

 Orbital energies:

           1.1          2.1          3.1          4.1          5.1          6.1          7.1          8.1          9.1         10.1
    -20.513180   -15.585076   -11.352636   -11.247652   -11.226582    -1.368582    -1.200780    -1.045556    -0.887423    -0.776282

          11.1         12.1         13.1         14.1         15.1         16.1         17.1         18.1         19.1         20.1
     -0.710782    -0.664199    -0.623419    -0.591721    -0.552767    -0.520159    -0.510040    -0.488661    -0.412245    -0.404642

          21.1         22.1
      0.168156     0.185886


 HOMO     20.1    -0.404642 =     -11.0109eV
 LUMO     21.1     0.168156 =       4.5758eV
 LUMO-HOMO         0.572798 =      15.5866eV

 Orbitals saved in record  2100.2


 **********************************************************************************************************************************
 DATASETS  * FILE   NREC   LENGTH (MB)   RECORD NAMES
              1      19       87.31       500      610      700      900      950      970     1000      129      960     1100   
                                          VAR    BASINP    GEOM    SYMINP    ZMAT    AOBASIS   BASIS     P2S    ABASIS      S 
                                         1400     1410     1200     1210     1080     1600     1650     1300     1700   
                                           T        V       H0       H01     AOSYM     SMH    MOLCAS    ERIS     OPER   

              2       4        0.74       700     1000      520     2100   
                                         GEOM     BASIS   MCVARS     RHF  

 PROGRAMS   *        TOTAL    HF-SCF       INT
 CPU TIMES  *         5.11      2.06      2.91
 REAL TIME  *        12.87 SEC
 DISK USED  *       267.02 MB
 **********************************************************************************************************************************


 PROGRAM * MP2 (Closed-shell)     Authors: C. Hampel, H.-J. Werner, 1991, M. Deegan, P.J. Knowles, 1992


 Convergence thresholds:  THRVAR = 1.00D-08  THRDEN = 1.00D-06

 Number of core orbitals:           5 (   5 )
 Number of closed-shell orbitals:  15 (  15 )
 Number of external orbitals:      85 (  85 )

 Molecular orbitals read from record     2100.2  Type=RHF/CANONICAL  

 Number of N-1 electron functions:              15
 Number of N-2 electron functions:             120
 Number of singly external CSFs:              1275
 Number of doubly external CSFs:            813450
 Total number of CSFs:                      814726

 Length of J-op  integral file:               0.00 MB
 Length of K-op  integral file:               0.82 MB

 Integral transformation finished. Total CPU:   0.47 sec, npass=  1  Memory used:   2.42 MW

 Memory needed for MP2:                      0.05 MW

 SCS-MP2 correlation energy:           -0.755346915662   (PS=  1.200000  PT=  0.333333)
 SCS-MP2 total energy:               -247.787824862579


  Reference energy                   -247.032477946917
  MP2 singlet pair energy              -0.479490979144
  MP2 triplet pair energy              -0.289217797536
  MP2 correlation energy               -0.768708776681

 !MP2 total energy                   -247.801186723597


 **********************************************************************************************************************************
 DATASETS  * FILE   NREC   LENGTH (MB)   RECORD NAMES
              1      20      102.68       500      610      700      900      950      970     1000      129      960     1100   
                                          VAR    BASINP    GEOM    SYMINP    ZMAT    AOBASIS   BASIS     P2S    ABASIS      S 
                                         1400     1410     1200     1210     1080     1600     1650     1300     1700     1380   
                                           T        V       H0       H01     AOSYM     SMH    MOLCAS    ERIS     OPER     JKOP   

              2       4        0.74       700     1000      520     2100   
                                         GEOM     BASIS   MCVARS     RHF  

 PROGRAMS   *        TOTAL       MP2    HF-SCF       INT
 CPU TIMES  *         5.74      0.63      2.06      2.91
 REAL TIME  *        13.90 SEC
 DISK USED  *       267.02 MB
 **********************************************************************************************************************************

 Dump information in style XML to xml output                                                                      

 Orbitals will not be exported.

 **********************************************************************************************************************************

 MP2/cc-pVDZ energy=   -247.801186723597

             MP2          HF-SCF
   -247.80118672   -247.03247795
 **********************************************************************************************************************************
 Molpro calculation terminated
