
 Working directory              : /home/jovyan/scratch/molpro.JmVBEBeGHL/
 Global scratch directory       : /home/jovyan/scratch/molpro.JmVBEBeGHL/
 Wavefunction directory         : /home/jovyan/wfu/
 Main file repository           : /home/jovyan/scratch/molpro.JmVBEBeGHL/

 id        : cardiff

 Nodes                nprocs
 jupyter-c-2efrancisan    1
 GA implementation: MPI file
 GA implementation (serial work in mppx): MPI file

 Using customized tuning parameters: mindgm=1; mindgv=20; mindgc=4; mindgr=1; noblas=0; minvec=7
 default implementation of scratch files=df  


 Variables initialized (1031), CPU time= 0.01 sec
 
 
 
 geometry={
 8
  2NH3TS (Full point group C2v)
  H 0.673346 0.000000 -0.244115
  H -0.673346 0.000000 -0.244115
  H 0.000000 0.809962 1.821379
  H 0.000000 -0.839127 -1.730643
  N 0.000000 0.000000 -1.165033
  N 0.000000 0.000000 1.208856
  H 0.000000 -0.809962 1.821379
  H 0.000000 0.839127 -1.730643
 }
 basis=cc-pVTZ
 angstrom
 
 
 hf; ccsd(t)
 
 
 
 {put,xml;noorbitals,nobasis}
 Commands initialized (841), CPU time= 0.01 sec, 704 directives.
 Default parameters read. Elapsed time= 0.08 sec

 Checking input...
 Passed
1


                                         ***  PROGRAM SYSTEM MOLPRO  ***
                                       Copyright, TTI GmbH Stuttgart, 2015
                                    Version 2023.1 linked Mon Jun  5 13:27:10 2023


 **********************************************************************************************************************************
 LABEL *                                                                                                                                                                 
  (16 PROC) 64 bit serial version                                                        DATE: 03-Aug-23          TIME: 13:58:25  
 **********************************************************************************************************************************

 SHA1:             9738a14712571edd23541b6d7c4f3a3d766f8287
 **********************************************************************************************************************************

 Memory per process:       805 MW
 Total memory per node:   1074 MW
 Total GA space:           268 MW

 GA preallocation disabled
 GA check enabled

 Geometry recognized as XYZ


 Variable memory set to 805.3 MW

 SETTING BASIS          =    CC-PVTZ


 Recomputing integrals since basis changed


 Using spherical harmonics

 Library entry H      S cc-pVTZ              selected for orbital group  1
 Library entry H      P cc-pVTZ              selected for orbital group  1
 Library entry H      D cc-pVTZ              selected for orbital group  1
 Library entry N      S cc-pVTZ              selected for orbital group  2
 Library entry N      P cc-pVTZ              selected for orbital group  2
 Library entry N      D cc-pVTZ              selected for orbital group  2
 Library entry N      F cc-pVTZ              selected for orbital group  2


 PROGRAM * SEWARD (Integral evaluation for generally contracted gaussian basis sets)     Author: Roland Lindh, 1990

 Geometry written to block  1 of record 700


 Point group  C2v 



 ATOMIC COORDINATES

 NR  ATOM    CHARGE       X              Y              Z

   1  H       1.00    1.272439527    0.000000000   -0.461310493
   2  H       1.00   -1.272439527    0.000000000   -0.461310493
   3  H       1.00    0.000000000    1.530606351    3.441907479
   4  H       1.00    0.000000000   -1.530606351    3.441907479
   5  H       1.00    0.000000000   -1.585720214   -3.270441290
   6  H       1.00    0.000000000    1.585720214   -3.270441290
   7  N       7.00    0.000000000    0.000000000   -2.201593296
   8  N       7.00    0.000000000    0.000000000    2.284406764

 Bond lengths in Bohr (Angstrom)

 1-7  2.155849388  2-7  2.155849388  3-8  1.919000706  4-8  1.919000706  5-7  1.912313946
     ( 1.140826366)     ( 1.140826366)     ( 1.015491441)     ( 1.015491441)     ( 1.011952960)

 6-7  1.912313946
     ( 1.011952960)

 Bond angles

  1-7-2   72.34617175   1-7-5  116.81997208   1-7-6  116.81997208   2-7-5  116.81997208

  2-7-6  116.81997208   3-8-4  105.80418055   5-7-6  112.03645382

 NUCLEAR CHARGE:                   20
 NUMBER OF PRIMITIVE AOS:         196
 NUMBER OF SYMMETRY AOS:          180
 NUMBER OF CONTRACTIONS:          144   (   56A1  +   32B1  +   38B2  +   18A2  )
 NUMBER OF INNER CORE ORBITALS:     0   (    0A1  +    0B1  +    0B2  +    0A2  )
 NUMBER OF OUTER CORE ORBITALS:     2   (    2A1  +    0B1  +    0B2  +    0A2  )
 NUMBER OF VALENCE ORBITALS:       14   (    7A1  +    3B1  +    4B2  +    0A2  )


 NUCLEAR REPULSION ENERGY   45.14680952


 Eigenvalues of metric

         1 0.143E-02 0.212E-02 0.311E-02 0.413E-02 0.473E-02 0.941E-02 0.107E-01 0.118E-01
         2 0.366E-02 0.118E-01 0.272E-01 0.354E-01 0.411E-01 0.563E-01 0.804E-01 0.958E-01
         3 0.231E-02 0.358E-02 0.766E-02 0.832E-02 0.320E-01 0.361E-01 0.443E-01 0.559E-01
         4 0.667E-01 0.969E-01 0.201E+00 0.278E+00 0.326E+00 0.406E+00 0.484E+00 0.573E+00


 Contracted 2-electron integrals neglected if value below      1.0D-11
 AO integral compression algorithm  1   Integral accuracy      1.0D-11

     60.817 MB (compressed) written to integral file ( 46.1%)


 NUMBER OF SORTED TWO-ELECTRON INTEGRALS:   14100324.     BUFFER LENGTH:  32768
 NUMBER OF SEGMENTS:   1  SEGMENT LENGTH:   14100324      RECORD LENGTH: 524288

 Memory used in sort:      14.66 MW

 SORT1 READ    16534376. AND WROTE    12812240. INTEGRALS IN     37 RECORDS. CPU TIME:     0.40 SEC, REAL TIME:     0.64 SEC
 SORT2 READ    12812240. AND WROTE    14100324. INTEGRALS IN    232 RECORDS. CPU TIME:     0.45 SEC, REAL TIME:     0.52 SEC

 FILE SIZES:   FILE 1:    91.4 MBYTE,  FILE 4:   155.3 MBYTE,   TOTAL:    246.7 MBYTE

 OPERATOR DM      FOR CENTER  0  COORDINATES:    0.000000    0.000000    0.000000


 **********************************************************************************************************************************
 DATASETS  * FILE   NREC   LENGTH (MB)   RECORD NAMES
              1      19       80.61       500      610      700      900      950      970     1000      129      960     1100   
                                          VAR    BASINP    GEOM    SYMINP    ZMAT    AOBASIS   BASIS     P2S    ABASIS      S 
                                         1400     1410     1200     1210     1080     1600     1650     1300     1700   
                                           T        V       H0       H01     AOSYM     SMH    MOLCAS    ERIS     OPER   

 PROGRAMS   *        TOTAL       INT
 CPU TIMES  *         3.40      3.27
 REAL TIME  *         4.91 SEC
 DISK USED  *       235.70 MB
 **********************************************************************************************************************************


 Program * Restricted Hartree-Fock

 Orbital guess generated from atomic densities. Full valence occupancy:    9   3   4   0

 Initial occupancy:   6   2   2   0

 NELEC=   20   SYM=1   MS2= 0   THRE=1.0D-08   THRD=3.2D-06   THRG=3.2D-06  HFMA2=F  DIIS_START=2   DIIS_MAX=10   DIIS_INCORE=F

 Level shifts:    0.00 (CLOSED)    0.00 (OPEN)    0.30 (GAP_MIN)

 ITER           ETOT              DE          GRAD        DDIFF     DIIS  NEXP   TIME(IT)  TIME(TOT)  DIAG
   1     -112.25596192    -112.25596192     0.00D+00     0.11D+00     0     0       0.08      0.16    start
   2     -112.29800697      -0.04204506     0.12D-01     0.19D-01     1     0       0.09      0.25    diag
   3     -112.31915190      -0.02114492     0.77D-02     0.70D-02     2     0       0.07      0.32    diag
   4     -112.31975387      -0.00060197     0.97D-03     0.13D-02     3     0       0.09      0.41    diag
   5     -112.31980057      -0.00004671     0.29D-03     0.35D-03     4     0       0.08      0.49    diag
   6     -112.31980674      -0.00000616     0.90D-04     0.16D-03     5     0       0.08      0.57    diag
   7     -112.31980717      -0.00000043     0.19D-04     0.41D-04     6     0       0.08      0.65    diag
   8     -112.31980723      -0.00000006     0.64D-05     0.18D-04     7     0       0.08      0.73    fixocc
   9     -112.31980723      -0.00000000     0.14D-05     0.40D-05     8     0       0.08      0.81    diag
  10     -112.31980723      -0.00000000     0.26D-06     0.67D-06     9     0       0.08      0.89    diag/orth
  11     -112.31980723      -0.00000000     0.51D-07     0.92D-07     0     0       0.08      0.97    diag

 Final occupancy:   6   2   2   0

 !RHF STATE 1.1 Energy               -112.319807233300
  RHF One-electron energy            -241.938428508136
  RHF Two-electron energy              84.471811759412
  RHF Kinetic energy                  112.150196577316
  RHF Nuclear energy                   45.146809515424
  RHF Virial quotient                  -1.001512352730

 !RHF STATE 1.1 Dipole moment           0.00000000     0.00000000    -1.58441855
 Dipole moment /Debye                   0.00000000     0.00000000    -4.02719026

 Orbital energies:

           1.1          2.1          3.1          4.1          5.1          6.1          7.1          8.1
    -15.602225   -15.436989    -1.215082    -1.009063    -0.736983    -0.384812     0.118503     0.196717

           1.2          2.2          3.2          4.2
     -0.573777    -0.302158     0.261467     0.403718

           1.3          2.3          3.3          4.3
     -0.702230    -0.534084     0.179709     0.258913

           1.4          2.4
      0.700133     0.892687


 HOMO      2.2    -0.302158 =      -8.2221eV
 LUMO      7.1     0.118503 =       3.2246eV
 LUMO-HOMO         0.420661 =      11.4468eV

 Orbitals saved in record  2100.2


 **********************************************************************************************************************************
 DATASETS  * FILE   NREC   LENGTH (MB)   RECORD NAMES
              1      19       80.61       500      610      700      900      950      970     1000      129      960     1100   
                                          VAR    BASINP    GEOM    SYMINP    ZMAT    AOBASIS   BASIS     P2S    ABASIS      S 
                                         1400     1410     1200     1210     1080     1600     1650     1300     1700   
                                           T        V       H0       H01     AOSYM     SMH    MOLCAS    ERIS     OPER   

              2       4        0.60       700     1000      520     2100   
                                         GEOM     BASIS   MCVARS     RHF  

 PROGRAMS   *        TOTAL    HF-SCF       INT
 CPU TIMES  *         4.37      0.97      3.27
 REAL TIME  *         6.02 SEC
 DISK USED  *       235.70 MB
 **********************************************************************************************************************************


 PROGRAM * CCSD (Closed-shell coupled cluster)     Authors: C. Hampel, H.-J. Werner, 1991, M. Deegan, P.J. Knowles, 1992


 Convergence thresholds:  THRVAR = 1.00D-08  THRDEN = 1.00D-06

 CCSD(T)     terms to be evaluated (factor= 1.000)


 Number of core orbitals:           2 (   2   0   0   0 )
 Number of closed-shell orbitals:   8 (   4   2   2   0 )
 Number of external orbitals:     134 (  50  30  36  18 )

 Molecular orbitals read from record     2100.2  Type=RHF/CANONICAL  

 Number of N-1 electron functions:               8
 Number of N-2 electron functions:              36
 Number of singly external CSFs:               332
 Number of doubly external CSFs:            148424
 Total number of CSFs:                      148757

 Length of J-op  integral file:               0.00 MB
 Length of K-op  integral file:               0.47 MB
 Length of 3-ext integral record:             0.00 MB

 Memory could be reduced to 6.89 Mwords without degradation in triples

 Integral transformation finished. Total CPU:   0.33 sec, npass=  1  Memory used:   1.16 MW

 Reference energy:                   -112.31980723

 MP2 singlet pair energy:              -0.32336227
 MP2 triplet pair energy:              -0.17517785
 MP2 correlation energy:               -0.49854012
 MP2 total energy:                   -112.81834735

 SCS-MP2 correlation energy:           -0.49703427   (PS=  1.200000  PT=  0.333333)
 SCS-MP2 total energy:               -112.81684151

 ITER.      SQ.NORM     CORR.ENERGY   TOTAL ENERGY   ENERGY CHANGE        DEN1      VAR(S)    VAR(P)  DIIS     TIME  TIME/IT
   1      1.14892624    -0.51444154  -112.83424877    -0.01590142    -0.00434959  0.17D-02  0.23D-02  1  1     5.35     0.40
   2      1.15807780    -0.51569749  -112.83550473    -0.00125595    -0.01025335  0.36D-04  0.30D-03  2  2     5.73     0.41
   3      1.16165020    -0.51585892  -112.83566616    -0.00016143    -0.00210042  0.32D-04  0.16D-04  3  3     6.10     0.41
   4      1.16290092    -0.51588440  -112.83569164    -0.00002548    -0.00049514  0.35D-05  0.25D-05  4  4     6.49     0.41
   5      1.16332241    -0.51588196  -112.83568919     0.00000245    -0.00010297  0.12D-05  0.25D-06  5  5     6.87     0.41
   6      1.16349396    -0.51587277  -112.83568001     0.00000918    -0.00002532  0.14D-06  0.34D-07  6  6     7.26     0.41
   7      1.16354073    -0.51587109  -112.83567832     0.00000169    -0.00000388  0.14D-07  0.68D-08  6  2     7.66     0.42
   8      1.16355250    -0.51587054  -112.83567778     0.00000054    -0.00000015  0.26D-08  0.87D-09  6  1     8.05     0.42
   9      1.16355743    -0.51587036  -112.83567760     0.00000018     0.00000015  0.25D-09  0.96D-10  6  3     8.43     0.42

 Norm of t1 vector:      0.05998686      S-energy:    -0.00000004      T1 diagnostic:  0.01060428
                                                                       D1 diagnostic:  0.02746932
                                                                       D2 diagnostic:  0.14704443 (internal)


 Total CPU time for triples:      3.84 sec


 RESULTS
 =======

  Reference energy                   -112.319807233300
  CCSD singlet pair energy             -0.358432705884
  CCSD triplet pair energy             -0.157437617122
  CCSD correlation energy              -0.515870364553

  Triples (T) contribution             -0.019752943799
  Total correlation energy             -0.535623308352

  CCSD total energy                  -112.835677597853
  CCSD[T] energy                     -112.855966100804
  CCSD-T energy                      -112.855162562235
 !CCSD(T) total energy               -112.855430541652

 Timing summary (sec):

 STEP                 CPU(USER)    SYS     CPU(TOT)    WALL
 Transformation          0.34      0.07      0.41      0.60
 CCSD iterations         8.11      0.27      8.38      3.79
 Triples                 3.84      0.17      4.01      4.05

 Program statistics:

 Available memory in ccsd:               805306106
 Min. memory needed in ccsd:                460769
 Max. memory used in ccsd:                  584637
 Max. memory used in cckext:                589236 ( 9 integral passes)



 **********************************************************************************************************************************
 DATASETS  * FILE   NREC   LENGTH (MB)   RECORD NAMES
              1      20      101.76       500      610      700      900      950      970     1000      129      960     1100   
                                          VAR    BASINP    GEOM    SYMINP    ZMAT    AOBASIS   BASIS     P2S    ABASIS      S 
                                         1400     1410     1200     1210     1080     1600     1650     1300     1700     1380   
                                           T        V       H0       H01     AOSYM     SMH    MOLCAS    ERIS     OPER     JKOP   

              2       4        0.60       700     1000      520     2100   
                                         GEOM     BASIS   MCVARS     RHF  

 PROGRAMS   *        TOTAL   CCSD(T)    HF-SCF       INT
 CPU TIMES  *        12.07      7.69      0.97      3.27
 REAL TIME  *        14.50 SEC
 DISK USED  *       235.70 MB
 **********************************************************************************************************************************

 Dump information in style XML to xml output                                                                      

 Orbitals will not be exported.

 **********************************************************************************************************************************

 CCSD(T)/cc-pVTZ energy=   -112.855430541652

         CCSD(T)          HF-SCF
   -112.85543054   -112.31980723
 **********************************************************************************************************************************
 Molpro calculation terminated
