
 Working directory              : /home/jovyan/scratch/molpro.FoMTSEOn1v/
 Global scratch directory       : /home/jovyan/scratch/molpro.FoMTSEOn1v/
 Wavefunction directory         : /home/jovyan/wfu/
 Main file repository           : /home/jovyan/scratch/molpro.FoMTSEOn1v/

 id        : cardiff

 Nodes                nprocs
 jupyter-c-2efrancisan    1
 GA implementation: MPI file
 GA implementation (serial work in mppx): MPI file

 Using customized tuning parameters: mindgm=1; mindgv=20; mindgc=4; mindgr=1; noblas=0; minvec=7
 default implementation of scratch files=df  


 Variables initialized (1031), CPU time= 0.00 sec
 
 
 
 geometry={
 12
  3NH3 (cyc) (Full point group C1)
  H -1.368356 -0.180977 -0.013169
  H 0.842949 -1.094909 0.003968
  H 0.528298 1.276672 0.008017
  H -1.941415 -1.484031 -0.832875
  H 2.256561 -0.944858 0.826735
  H -0.321706 2.423720 0.820266
  N -1.414869 -1.200455 -0.014850
  N 1.748040 -0.623591 0.011230
  N -0.333168 1.823765 0.003717
  H 2.265911 -0.938111 -0.801018
  H -0.309348 2.430495 -0.807547
  H -1.952921 -1.486037 0.794944
 }
 basis=cc-pVDZ
 angstrom
 
 
 hf; papt;mp3
 
 
 
 {put,xml;noorbitals,nobasis}
 Commands initialized (841), CPU time= 0.01 sec, 704 directives.
 Default parameters read. Elapsed time= 0.08 sec

 Checking input...
 Passed
1


                                         ***  PROGRAM SYSTEM MOLPRO  ***
                                       Copyright, TTI GmbH Stuttgart, 2015
                                    Version 2023.1 linked Mon Jun  5 13:27:10 2023


 **********************************************************************************************************************************
 LABEL *                                                                                                                                                                 
  (16 PROC) 64 bit serial version                                                        DATE: 03-Aug-23          TIME: 13:13:51  
 **********************************************************************************************************************************

 SHA1:             9738a14712571edd23541b6d7c4f3a3d766f8287
 **********************************************************************************************************************************

 Memory per process:       805 MW
 Total memory per node:   1074 MW
 Total GA space:           268 MW

 GA preallocation disabled
 GA check enabled

 Geometry recognized as XYZ


 Variable memory set to 805.3 MW

 SETTING BASIS          =    CC-PVDZ


 Recomputing integrals since basis changed


 Using spherical harmonics

 Library entry H      S cc-pVDZ              selected for orbital group  1
 Library entry H      P cc-pVDZ              selected for orbital group  1
 Library entry N      S cc-pVDZ              selected for orbital group  2
 Library entry N      P cc-pVDZ              selected for orbital group  2
 Library entry N      D cc-pVDZ              selected for orbital group  2


 PROGRAM * SEWARD (Integral evaluation for generally contracted gaussian basis sets)     Author: Roland Lindh, 1990

 Geometry written to block  1 of record 700


 Point group  C1  



 ATOMIC COORDINATES

 NR  ATOM    CHARGE       X              Y              Z

   1  H       1.00   -2.585818081   -0.341996965   -0.024885803
   2  H       1.00    1.592942747   -2.069078141    0.007498433
   3  H       1.00    0.998338532    2.412560431    0.015149934
   4  H       1.00   -3.668742644   -2.804412150   -1.573905646
   5  H       1.00    4.264282274   -1.785522847    1.562302728
   6  H       1.00   -0.607936233    4.580167003    1.550078089
   7  N       7.00   -2.673714912   -2.268531175   -0.028062433
   8  N       7.00    3.303316855   -1.178416204    0.021221624
   9  N       7.00   -0.629596273    3.446416366    0.007024112
  10  H       1.00    4.281951213   -1.772772864   -1.513704641
  11  H       1.00   -0.584582997    4.592969897   -1.526042663
  12  H       1.00   -3.690485833   -2.808202941    1.502226444

 Bond lengths in Bohr (Angstrom)

 1-7  1.928540901  2-8  1.928431124  3-9  1.928495749  4-7  1.914909880  5-8  1.914931847
     ( 1.020539895)     ( 1.020481804)     ( 1.020516002)     ( 1.013326669)     ( 1.013338294)

  6- 9  1.914908677   7-12  1.914902809   8-10  1.914936993   9-11  1.914916429
       ( 1.013326033)       ( 1.013322928)       ( 1.013341017)       ( 1.013330135)

 Bond angles

  1- 7- 4  107.73216325   1- 7-12  107.72315038   2- 8- 5  107.72108479   2- 8-10  107.71067298

  3- 9- 6  107.72562755   3- 9-11  107.72905242   4- 7-12  106.87886132   5- 8-10  106.87023060

  6- 9-11  106.87960451

 NUCLEAR CHARGE:                   30
 NUMBER OF PRIMITIVE AOS:         144
 NUMBER OF SYMMETRY AOS:          141
 NUMBER OF CONTRACTIONS:           87   (   87A   )
 NUMBER OF INNER CORE ORBITALS:     0   (    0A   )
 NUMBER OF OUTER CORE ORBITALS:     3   (    3A   )
 NUMBER OF VALENCE ORBITALS:       21   (   21A   )


 NUCLEAR REPULSION ENERGY   84.04420923


 Eigenvalues of metric

         1 0.138E-01 0.147E-01 0.147E-01 0.361E-01 0.361E-01 0.397E-01 0.397E-01 0.406E-01


 Contracted 2-electron integrals neglected if value below      1.0D-11
 AO integral compression algorithm  1   Integral accuracy      1.0D-11

     28.574 MB (compressed) written to integral file ( 45.3%)


 NUMBER OF SORTED TWO-ELECTRON INTEGRALS:    7328706.     BUFFER LENGTH:  32768
 NUMBER OF SEGMENTS:   1  SEGMENT LENGTH:    7328706      RECORD LENGTH: 524288

 Memory used in sort:       7.89 MW

 SORT1 READ     7885540. AND WROTE     6555069. INTEGRALS IN     19 RECORDS. CPU TIME:     0.10 SEC, REAL TIME:     2.47 SEC
 SORT2 READ     6555069. AND WROTE     7328706. INTEGRALS IN    109 RECORDS. CPU TIME:     0.20 SEC, REAL TIME:     0.22 SEC

 FILE SIZES:   FILE 1:    59.0 MBYTE,  FILE 4:    79.8 MBYTE,   TOTAL:    138.8 MBYTE

 OPERATOR DM      FOR CENTER  0  COORDINATES:    0.000000    0.000000    0.000000


 **********************************************************************************************************************************
 DATASETS  * FILE   NREC   LENGTH (MB)   RECORD NAMES
              1      19       51.79       500      610      700      900      950      970     1000      129      960     1100   
                                          VAR    BASINP    GEOM    SYMINP    ZMAT    AOBASIS   BASIS     P2S    ABASIS      S 
                                         1400     1410     1200     1210     1080     1600     1650     1300     1700   
                                           T        V       H0       H01     AOSYM     SMH    MOLCAS    ERIS     OPER   

 PROGRAMS   *        TOTAL       INT
 CPU TIMES  *         1.68      1.54
 REAL TIME  *         8.22 SEC
 DISK USED  *       132.88 MB
 **********************************************************************************************************************************


 Program * Restricted Hartree-Fock

 Orbital guess generated from atomic densities. Full valence occupancy:   24

 Initial occupancy:  15

 NELEC=   30   SYM=1   MS2= 0   THRE=1.0D-08   THRD=3.2D-06   THRG=3.2D-06  HFMA2=F  DIIS_START=2   DIIS_MAX=10   DIIS_INCORE=F

 Level shifts:    0.00 (CLOSED)    0.00 (OPEN)    0.30 (GAP_MIN)

 ITER           ETOT              DE          GRAD        DDIFF     DIIS  NEXP   TIME(IT)  TIME(TOT)  DIAG
   1     -168.53302620    -168.53302620     0.00D+00     0.11D+00     0     0       0.09      0.17    start
   2     -168.59169354      -0.05866734     0.79D-02     0.17D-01     1     0       0.10      0.27    diag
   3     -168.60211626      -0.01042272     0.34D-02     0.53D-02     2     0       0.08      0.35    diag
   4     -168.60275295      -0.00063669     0.63D-03     0.15D-02     3     0       0.10      0.45    diag
   5     -168.60277430      -0.00002135     0.11D-03     0.26D-03     4     0       0.09      0.54    diag
   6     -168.60277532      -0.00000102     0.21D-04     0.52D-04     5     0       0.09      0.63    diag
   7     -168.60277538      -0.00000006     0.45D-05     0.13D-04     6     0       0.09      0.72    diag
   8     -168.60277538      -0.00000000     0.12D-05     0.38D-05     7     0       0.09      0.81    fixocc
   9     -168.60277538      -0.00000000     0.24D-06     0.78D-06     8     0       0.09      0.90    diag
  10     -168.60277538      -0.00000000     0.44D-07     0.88D-07     0     0       0.10      1.00    diag/orth

 Final occupancy:  15

 !RHF STATE 1.1 Energy               -168.602775384179
  RHF One-electron energy            -395.761044963352
  RHF Two-electron energy             143.114060349510
  RHF Kinetic energy                  168.285765249923
  RHF Nuclear energy                   84.044209229663
  RHF Virial quotient                  -1.001883760839

 !RHF STATE 1.1 Dipole moment           0.00091246     0.00251420    -0.00048435
 Dipole moment /Debye                   0.00231923     0.00639045    -0.00123110

 Orbital energies:

           1.1          2.1          3.1          4.1          5.1          6.1          7.1          8.1          9.1         10.1
    -15.522936   -15.522908   -15.522729    -1.123696    -1.113578    -1.113448    -0.623361    -0.607529    -0.604377    -0.604271

          11.1         12.1         13.1         14.1         15.1         16.1         17.1
     -0.594593    -0.594515    -0.411375    -0.411288    -0.395862     0.181916     0.221132


 HOMO     15.1    -0.395862 =     -10.7719eV
 LUMO     16.1     0.181916 =       4.9502eV
 LUMO-HOMO         0.577778 =      15.7221eV

 Orbitals saved in record  2100.2


 **********************************************************************************************************************************
 DATASETS  * FILE   NREC   LENGTH (MB)   RECORD NAMES
              1      19       51.79       500      610      700      900      950      970     1000      129      960     1100   
                                          VAR    BASINP    GEOM    SYMINP    ZMAT    AOBASIS   BASIS     P2S    ABASIS      S 
                                         1400     1410     1200     1210     1080     1600     1650     1300     1700   
                                           T        V       H0       H01     AOSYM     SMH    MOLCAS    ERIS     OPER   

              2       4        0.68       700     1000      520     2100   
                                         GEOM     BASIS   MCVARS     RHF  

 PROGRAMS   *        TOTAL    HF-SCF       INT
 CPU TIMES  *         2.69      1.01      1.54
 REAL TIME  *         9.36 SEC
 DISK USED  *       132.88 MB
 **********************************************************************************************************************************


 PROGRAM * PAPT (Closed-shell)     Authors: C. Hampel, H.-J. Werner, 1991, P.J. Knowles, 2021


 Convergence thresholds:  THRVAR = 1.00D-08  THRDEN = 1.00D-06

 Number of core orbitals:           3 (   3 )
 Number of closed-shell orbitals:  12 (  12 )
 Number of external orbitals:      72 (  72 )

 Molecular orbitals read from record     2100.2  Type=RHF/CANONICAL  

 Number of N-1 electron functions:              12
 Number of N-2 electron functions:              78
 Number of singly external CSFs:               864
 Number of doubly external CSFs:            373680
 Total number of CSFs:                      374545

 Length of J-op  integral file:               0.00 MB
 Length of K-op  integral file:               0.58 MB

 Integral transformation finished. Total CPU:   0.19 sec, npass=  1  Memory used:   1.17 MW

 Reference energy:                   -168.60277538

                        CORR.ENERGY   TOTAL ENERGY   ENERGY CHANGE
 MP2:                   -0.56706446  -169.16983985    -0.56706446

 SCS-MP2 correlation energy:           -0.56672481   (PS=  1.200000  PT=  0.333333)
 SCS-MP2 total energy:               -169.16950020
 Iteration:   1     0.1861D+00
 Iteration:   2     0.2941D+00
 Iteration:   3     0.8472D-01
 Iteration:   4     0.1882D-01
 Iteration:   5     0.4790D-01
 Iteration:   6     0.4715D-02
 Iteration:   7     0.1764D-01
 Iteration:   8     0.1408D-02
 Iteration:   9     0.1238D-02
 Iteration:  10     0.1379D-02
 Iteration:  11     0.1849D-03
 Iteration:  12     0.2417D-03
 Iteration:  13     0.9568D-04
 PAPT operator written to  7000.1
 PAPT orbitals and eigenvalues written to  7000.2

 MP3(D):                -0.60629197  -169.20906735    -0.03922751



 RESULTS
 =======

  Reference energy                   -168.602775384179
  MP3 singlet pair energy              -0.418080487476
  MP3 triplet pair energy              -0.188211483183
  MP3 correlation energy               -0.606291970660

 !MP3 total energy                   -169.209067354839

 Timing summary (sec):

 STEP                 CPU(USER)    SYS     CPU(TOT)    WALL
 Transformation          0.22      0.02      0.24      0.32
 CCSD iterations         4.86      0.05      4.91      2.05

 Program statistics:

 Available memory in ccsd:               805305777
 Min. memory needed in ccsd:               1063486
 Max. memory used in ccsd:                 1377874
 Max. memory used in cckext:               1282952 ( 1 integral passes)



 **********************************************************************************************************************************
 DATASETS  * FILE   NREC   LENGTH (MB)   RECORD NAMES
              1      21       58.72       500      610      700      900      950      970     1000      129      960     1100   
                                          VAR    BASINP    GEOM    SYMINP    ZMAT    AOBASIS   BASIS     P2S    ABASIS      S 
                                         1400     1410     1200     1210     1080     1600     1650     1300     1700     1380   
                                           T        V       H0       H01     AOSYM     SMH    MOLCAS    ERIS     OPER     JKOP   
                                         7000   
                                        PAPT AO    

              2       5        0.96       700     1000      520     2100     7000   
                                         GEOM     BASIS   MCVARS     RHF     PAPT   

 PROGRAMS   *        TOTAL      PAPT    HF-SCF       INT
 CPU TIMES  *         4.90      2.21      1.01      1.54
 REAL TIME  *        11.77 SEC
 DISK USED  *       132.88 MB
 **********************************************************************************************************************************


 PROGRAM * MP3 (Closed-shell)     Authors: C. Hampel, H.-J. Werner, 1991, M. Deegan, P.J. Knowles, 1992


 Convergence thresholds:  THRVAR = 1.00D-08  THRDEN = 1.00D-06

 Number of core orbitals:           3 (   3 )
 Number of closed-shell orbitals:  12 (  12 )
 Number of external orbitals:      72 (  72 )

 Molecular orbitals read from record     7000.2  Type=PAPT/CANONICAL (state 1.1)

 Number of N-1 electron functions:              12
 Number of N-2 electron functions:              78
 Number of singly external CSFs:               864
 Number of doubly external CSFs:            373680
 Total number of CSFs:                      374545

 Length of J-op  integral file:               0.00 MB
 Length of K-op  integral file:               0.58 MB

 Integral transformation finished. Total CPU:   0.19 sec, npass=  1  Memory used:   1.17 MW
 Orbital energies read from record       7000.2  Type=PAPT/CANONICAL (state 1.1)

 Reference energy:                   -168.60277538

                        CORR.ENERGY   TOTAL ENERGY   ENERGY CHANGE
 MP2:                   -0.61259439  -169.21536977    -0.61259439

 SCS-MP2 correlation energy:           -0.61466762   (PS=  1.200000  PT=  0.333333)
 SCS-MP2 total energy:               -169.21744300

 MP3(D):                -0.61282409  -169.21559947    -0.00022970



 RESULTS
 =======

  Reference energy                   -168.602775384179
  MP3 singlet pair energy              -0.426017994716
  MP3 triplet pair energy              -0.186806093418
  MP3 correlation energy               -0.612824088135

 !MP3 total energy                   -169.215599472314

 Timing summary (sec):

 STEP                 CPU(USER)    SYS     CPU(TOT)    WALL
 Transformation          0.31      0.02      0.33      0.57
 CCSD iterations         5.88      0.03      5.91      0.81

 Program statistics:

 Available memory in ccsd:               805305777
 Min. memory needed in ccsd:               1063486
 Max. memory used in ccsd:                 1377874
 Max. memory used in cckext:               1282952 ( 1 integral passes)



 **********************************************************************************************************************************
 DATASETS  * FILE   NREC   LENGTH (MB)   RECORD NAMES
              1      21       58.72       500      610      700      900      950      970     1000      129      960     1100   
                                          VAR    BASINP    GEOM    SYMINP    ZMAT    AOBASIS   BASIS     P2S    ABASIS      S 
                                         1400     1410     1200     1210     1080     1600     1650     1300     1700     1380   
                                           T        V       H0       H01     AOSYM     SMH    MOLCAS    ERIS     OPER     JKOP   
                                         7000   
                                        PAPT AO    

              2       5        0.96       700     1000      520     2100     7000   
                                         GEOM     BASIS   MCVARS     RHF     PAPT   

 PROGRAMS   *        TOTAL       MP3      PAPT    HF-SCF       INT
 CPU TIMES  *         6.01      1.11      2.21      1.01      1.54
 REAL TIME  *        13.19 SEC
 DISK USED  *       132.88 MB
 **********************************************************************************************************************************

 Dump information in style XML to xml output                                                                      

 Orbitals will not be exported.

 **********************************************************************************************************************************

 MP3/cc-pVDZ energy=   -169.215599472314

             MP3            PAPT          HF-SCF
   -169.21559947   -169.20906735   -168.60277538
 **********************************************************************************************************************************
 Molpro calculation terminated
