
 Working directory              : /home/jovyan/scratch/molpro.7LjtdtEIxV/
 Global scratch directory       : /home/jovyan/scratch/molpro.7LjtdtEIxV/
 Wavefunction directory         : /home/jovyan/wfu/
 Main file repository           : /home/jovyan/scratch/molpro.7LjtdtEIxV/

 id        : cardiff

 Nodes                nprocs
 jupyter-c-2efrancisan    1
 GA implementation: MPI file
 GA implementation (serial work in mppx): MPI file

 Using customized tuning parameters: mindgm=1; mindgv=20; mindgc=4; mindgr=1; noblas=0; minvec=7
 default implementation of scratch files=df  


 Variables initialized (1031), CPU time= 0.00 sec
 
 
 
 geometry={
            6
     C         -0.13926933      0.33472048      0.00000000
     O         -0.13926933     -1.08341104      0.00000000
     H         -1.17980283      0.64759124      0.00000000
     H          0.76774408     -1.38539133      0.00000000
     H          0.34529870      0.74324532      0.88954166
     H          0.34529870      0.74324532     -0.88954166
 }
 basis=cc-pVDZ
 angstrom
 
 
 hf; ccsd(t)
 
 
 
 {put,xml;noorbitals,nobasis}
 Commands initialized (841), CPU time= 0.01 sec, 704 directives.
 Default parameters read. Elapsed time= 0.08 sec

 Checking input...
 Passed
1


                                         ***  PROGRAM SYSTEM MOLPRO  ***
                                       Copyright, TTI GmbH Stuttgart, 2015
                                    Version 2023.1 linked Mon Jun  5 13:27:10 2023


 **********************************************************************************************************************************
 LABEL *                                                                                                                                                                 
  (16 PROC) 64 bit serial version                                                        DATE: 02-Aug-23          TIME: 15:52:52  
 **********************************************************************************************************************************

 SHA1:             9738a14712571edd23541b6d7c4f3a3d766f8287
 **********************************************************************************************************************************

 Memory per process:       805 MW
 Total memory per node:   1074 MW
 Total GA space:           268 MW

 GA preallocation disabled
 GA check enabled

 Geometry recognized as XYZ


 Variable memory set to 805.3 MW

 SETTING BASIS          =    CC-PVDZ


 Recomputing integrals since basis changed


 Using spherical harmonics

 Library entry C      S cc-pVDZ              selected for orbital group  1
 Library entry C      P cc-pVDZ              selected for orbital group  1
 Library entry C      D cc-pVDZ              selected for orbital group  1
 Library entry O      S cc-pVDZ              selected for orbital group  2
 Library entry O      P cc-pVDZ              selected for orbital group  2
 Library entry O      D cc-pVDZ              selected for orbital group  2
 Library entry H      S cc-pVDZ              selected for orbital group  3
 Library entry H      P cc-pVDZ              selected for orbital group  3


 PROGRAM * SEWARD (Integral evaluation for generally contracted gaussian basis sets)     Author: Roland Lindh, 1990

 Geometry written to block  1 of record 700


 Point group  Cs  



 ATOMIC COORDINATES

 NR  ATOM    CHARGE       X              Y              Z

   1  C       6.00   -0.263180891    0.632530036    0.000000000
   2  O       8.00   -0.263180891   -2.047350146    0.000000000
   3  H       1.00   -2.229504230    1.223770084    0.000000000
   4  H       1.00    1.450826045   -2.618010189    0.000000000
   5  H       1.00    0.652519974    1.404530098    1.680990114
   6  H       1.00    0.652519974    1.404530098   -1.680990114

 Bond lengths in Bohr (Angstrom)

 1-2  2.679880181  1-3  2.053288160  1-5  2.064030023  1-6  2.064030023  2-4  1.806508417
     ( 1.418131520)     ( 1.086553302)     ( 1.092237651)     ( 1.092237651)     ( 0.955963086)

 Bond angles

  1-2-4  108.41462081   2-1-3  106.73514063   2-1-5  111.96410162   2-1-6  111.96410162

  3-1-5  108.49107784   3-1-6  108.49107784   5-1-6  109.06037247

 NUCLEAR CHARGE:                   18
 NUMBER OF PRIMITIVE AOS:          82
 NUMBER OF SYMMETRY AOS:           80
 NUMBER OF CONTRACTIONS:           48   (   33A'  +   15A"  )
 NUMBER OF INNER CORE ORBITALS:     0   (    0A'  +    0A"  )
 NUMBER OF OUTER CORE ORBITALS:     2   (    2A'  +    0A"  )
 NUMBER OF VALENCE ORBITALS:       12   (    9A'  +    3A"  )


 NUCLEAR REPULSION ENERGY   40.39336013

 Eigenvalues of metric

         1 0.961E-02 0.177E-01 0.365E-01 0.377E-01 0.473E-01 0.514E-01 0.739E-01 0.102E+00
         2 0.371E-01 0.471E-01 0.126E+00 0.177E+00 0.317E+00 0.471E+00 0.574E+00 0.914E+00


 Contracted 2-electron integrals neglected if value below      1.0D-11
 AO integral compression algorithm  1   Integral accuracy      1.0D-11

     2.097 MB (compressed) written to integral file ( 63.6%)


 NUMBER OF SORTED TWO-ELECTRON INTEGRALS:     366861.     BUFFER LENGTH:  32768
 NUMBER OF SEGMENTS:   1  SEGMENT LENGTH:     366861      RECORD LENGTH: 524288

 Memory used in sort:       0.92 MW

 SORT1 READ      448236. AND WROTE      342945. INTEGRALS IN      1 RECORDS. CPU TIME:     0.01 SEC, REAL TIME:     0.03 SEC
 SORT2 READ      342945. AND WROTE      366861. INTEGRALS IN      8 RECORDS. CPU TIME:     0.02 SEC, REAL TIME:     0.04 SEC

 FILE SIZES:   FILE 1:    32.2 MBYTE,  FILE 4:     4.3 MBYTE,   TOTAL:     36.5 MBYTE

 OPERATOR DM      FOR CENTER  0  COORDINATES:    0.000000    0.000000    0.000000


 **********************************************************************************************************************************
 DATASETS  * FILE   NREC   LENGTH (MB)   RECORD NAMES
              1      19       30.31       500      610      700      900      950      970     1000      129      960     1100   
                                          VAR    BASINP    GEOM    SYMINP    ZMAT    AOBASIS   BASIS     P2S    ABASIS      S 
                                         1400     1410     1200     1210     1080     1600     1650     1300     1700   
                                           T        V       H0       H01     AOSYM     SMH    MOLCAS    ERIS     OPER   

 PROGRAMS   *        TOTAL       INT
 CPU TIMES  *         0.63      0.50
 REAL TIME  *         1.69 SEC
 DISK USED  *        35.21 MB
 **********************************************************************************************************************************


 Program * Restricted Hartree-Fock

 Orbital guess generated from atomic densities. Full valence occupancy:   11   3

 Initial occupancy:   7   2

 NELEC=   18   SYM=1   MS2= 0   THRE=1.0D-08   THRD=3.2D-06   THRG=3.2D-06  HFMA2=F  DIIS_START=2   DIIS_MAX=10   DIIS_INCORE=F

 Level shifts:    0.00 (CLOSED)    0.00 (OPEN)    0.30 (GAP_MIN)

 ITER           ETOT              DE          GRAD        DDIFF     DIIS  NEXP   TIME(IT)  TIME(TOT)  DIAG
   1     -115.01456588    -115.01456588     0.00D+00     0.21D+00     0     0       0.00      0.00    start
   2     -115.04287198      -0.02830611     0.13D-01     0.27D-01     1     0       0.01      0.01    diag
   3     -115.04884081      -0.00596883     0.63D-02     0.84D-02     2     0       0.00      0.01    diag
   4     -115.04929959      -0.00045878     0.13D-02     0.27D-02     3     0       0.01      0.02    diag
   5     -115.04931991      -0.00002032     0.24D-03     0.56D-03     4     0       0.00      0.02    diag
   6     -115.04932067      -0.00000076     0.41D-04     0.12D-03     5     0       0.00      0.02    diag
   7     -115.04932070      -0.00000003     0.87D-05     0.19D-04     6     0       0.01      0.03    diag
   8     -115.04932070      -0.00000000     0.28D-05     0.67D-05     7     0       0.00      0.03    fixocc
   9     -115.04932070      -0.00000000     0.57D-06     0.18D-05     8     0       0.01      0.04    diag
  10     -115.04932070      -0.00000000     0.94D-07     0.23D-06     0     0       0.00      0.04    diag/orth

 Final occupancy:   7   2

 !RHF STATE 1.1 Energy               -115.049320701624
  RHF One-electron energy            -237.049135984219
  RHF Two-electron energy              81.606455148917
  RHF Kinetic energy                  114.964903885134
  RHF Nuclear energy                   40.393360133677
  RHF Virial quotient                  -1.000734283365

 !RHF STATE 1.1 Dipole moment           0.57065072     0.41535466     0.00000000
 Dipole moment /Debye                   1.45044944     1.05572624     0.00000000

 Orbital energies:

           1.1          2.1          3.1          4.1          5.1          6.1          7.1          8.1          9.1
    -20.548346   -11.273665    -1.350496    -0.922375    -0.683713    -0.586043    -0.496140     0.185137     0.224957

           1.2          2.2          3.2          4.2
     -0.614760    -0.442576     0.266906     0.643856


 HOMO      2.2    -0.442576 =     -12.0431eV
 LUMO      8.1     0.185137 =       5.0378eV
 LUMO-HOMO         0.627714 =      17.0810eV

 Orbitals saved in record  2100.2


 **********************************************************************************************************************************
 DATASETS  * FILE   NREC   LENGTH (MB)   RECORD NAMES
              1      19       30.31       500      610      700      900      950      970     1000      129      960     1100   
                                          VAR    BASINP    GEOM    SYMINP    ZMAT    AOBASIS   BASIS     P2S    ABASIS      S 
                                         1400     1410     1200     1210     1080     1600     1650     1300     1700   
                                           T        V       H0       H01     AOSYM     SMH    MOLCAS    ERIS     OPER   

              2       4        0.48       700     1000      520     2100   
                                         GEOM     BASIS   MCVARS     RHF  

 PROGRAMS   *        TOTAL    HF-SCF       INT
 CPU TIMES  *         0.69      0.05      0.50
 REAL TIME  *         1.84 SEC
 DISK USED  *        35.21 MB
 **********************************************************************************************************************************


 PROGRAM * CCSD (Closed-shell coupled cluster)     Authors: C. Hampel, H.-J. Werner, 1991, M. Deegan, P.J. Knowles, 1992


 Convergence thresholds:  THRVAR = 1.00D-08  THRDEN = 1.00D-06

 CCSD(T)     terms to be evaluated (factor= 1.000)


 Number of core orbitals:           2 (   2   0 )
 Number of closed-shell orbitals:   7 (   5   2 )
 Number of external orbitals:      39 (  26  13 )

 Molecular orbitals read from record     2100.2  Type=RHF/CANONICAL  

 Number of N-1 electron functions:               7
 Number of N-2 electron functions:              28
 Number of singly external CSFs:               156
 Number of doubly external CSFs:             19149
 Total number of CSFs:                       19306

 Length of J-op  integral file:               0.00 MB
 Length of K-op  integral file:               0.15 MB
 Length of 3-ext integral record:             0.00 MB

 Memory could be reduced to 0.40 Mwords without degradation in triples

 Integral transformation finished. Total CPU:   0.02 sec, npass=  1  Memory used:   0.23 MW

 Reference energy:                   -115.04932070

 MP2 singlet pair energy:              -0.21829787
 MP2 triplet pair energy:              -0.11968023
 MP2 correlation energy:               -0.33797810
 MP2 total energy:                   -115.38729880

 SCS-MP2 correlation energy:           -0.33642514   (PS=  1.200000  PT=  0.333333)
 SCS-MP2 total energy:               -115.38574584

 ITER.      SQ.NORM     CORR.ENERGY   TOTAL ENERGY   ENERGY CHANGE        DEN1      VAR(S)    VAR(P)  DIIS     TIME  TIME/IT
   1      1.10692827    -0.36079793  -115.41011864    -0.02281983    -0.01419253  0.90D-03  0.17D-02  1  1     1.07     0.03
   2      1.11538679    -0.36273240  -115.41205310    -0.00193447    -0.00920744  0.19D-04  0.16D-03  2  2     1.10     0.03
   3      1.11723445    -0.36285757  -115.41217828    -0.00012517    -0.00118654  0.93D-05  0.84D-05  3  3     1.12     0.03
   4      1.11773976    -0.36285628  -115.41217698     0.00000130    -0.00025069  0.33D-06  0.66D-06  4  4     1.15     0.03
   5      1.11783591    -0.36285665  -115.41217735    -0.00000038    -0.00003539  0.98D-07  0.48D-07  5  5     1.18     0.03
   6      1.11785464    -0.36285532  -115.41217602     0.00000133    -0.00000427  0.16D-07  0.40D-08  6  6     1.20     0.03
   7      1.11785937    -0.36285490  -115.41217561     0.00000041    -0.00000036  0.20D-08  0.71D-09  6  1     1.23     0.03
   8      1.11786063    -0.36285501  -115.41217571    -0.00000010     0.00000075  0.25D-09  0.72D-10  6  3     1.26     0.03

 Norm of t1 vector:      0.04133956      S-energy:    -0.00000034      T1 diagnostic:  0.00781244
                                                                       D1 diagnostic:  0.01744496
                                                                       D2 diagnostic:  0.13387973 (internal)


 Total CPU time for triples:      0.10 sec


 RESULTS
 =======

  Reference energy                   -115.049320701624
  CCSD singlet pair energy             -0.254157380151
  CCSD triplet pair energy             -0.108697290443
  CCSD correlation energy              -0.362855006411

  Triples (T) contribution             -0.007684088851
  Total correlation energy             -0.370539095262

  CCSD total energy                  -115.412175708035
  CCSD[T] energy                     -115.420145216640
  CCSD-T energy                      -115.419712040233
 !CCSD(T) total energy               -115.419859796886

 Timing summary (sec):

 STEP                 CPU(USER)    SYS     CPU(TOT)    WALL
 Transformation          0.02      0.01      0.03      0.17
 CCSD iterations         1.25      0.03      1.28      0.27
 Triples                 0.10      0.00      0.10      0.11

 Program statistics:

 Available memory in ccsd:               805306165
 Min. memory needed in ccsd:                 72083
 Max. memory used in ccsd:                   85659
 Max. memory used in cckext:                125279 ( 8 integral passes)



 **********************************************************************************************************************************
 DATASETS  * FILE   NREC   LENGTH (MB)   RECORD NAMES
              1      20       31.55       500      610      700      900      950      970     1000      129      960     1100   
                                          VAR    BASINP    GEOM    SYMINP    ZMAT    AOBASIS   BASIS     P2S    ABASIS      S 
                                         1400     1410     1200     1210     1080     1600     1650     1300     1700     1380   
                                           T        V       H0       H01     AOSYM     SMH    MOLCAS    ERIS     OPER     JKOP   

              2       4        0.48       700     1000      520     2100   
                                         GEOM     BASIS   MCVARS     RHF  

 PROGRAMS   *        TOTAL   CCSD(T)    HF-SCF       INT
 CPU TIMES  *         1.07      0.38      0.05      0.50
 REAL TIME  *         2.44 SEC
 DISK USED  *        35.89 MB
 **********************************************************************************************************************************

 Dump information in style XML to xml output                                                                      

 Orbitals will not be exported.

 **********************************************************************************************************************************

 CCSD(T)/cc-pVDZ energy=   -115.419859796886

         CCSD(T)          HF-SCF
   -115.41985980   -115.04932070
 **********************************************************************************************************************************
 Molpro calculation terminated
