
 Working directory              : /home/jovyan/scratch/molpro.40tZpbreBH/
 Global scratch directory       : /home/jovyan/scratch/molpro.40tZpbreBH/
 Wavefunction directory         : /home/jovyan/wfu/
 Main file repository           : /home/jovyan/scratch/molpro.40tZpbreBH/

 id        : cardiff

 Nodes                nprocs
 jupyter-c-2efrancisan    1
 GA implementation: MPI file
 GA implementation (serial work in mppx): MPI file

 Using customized tuning parameters: mindgm=1; mindgv=20; mindgc=4; mindgr=1; noblas=0; minvec=7
 default implementation of scratch files=df  


 Variables initialized (1031), CPU time= 0.00 sec
 
 
 
 geometry={
 22
  C     0.0000000    0.0000000    0.7395831
  C     1.1315582   -0.3997245    1.4579412
  C     1.1319975   -0.4003733    2.8462384
  C     0.0000000    0.0000000    3.5470967
  C    -1.1319975    0.4003733    2.8462384
  C    -1.1315582    0.3997245    1.4579412
  C     0.0000000    0.0000000   -0.7395831
  C     1.1315582    0.3997245   -1.4579412
  C     1.1319975    0.4003733   -2.8462384
  C     0.0000000    0.0000000   -3.5470967
  C    -1.1319975   -0.4003733   -2.8462384
  C    -1.1315582   -0.3997245   -1.4579412
  H     2.0096598   -0.7362253    0.9219214
  H     2.0161092   -0.7223128    3.3820552
  H     0.0000000    0.0000000    4.6295229
  H    -2.0161092    0.7223128    3.3820552
  H    -2.0096598    0.7362253    0.9219214
  H     2.0096598    0.7362253   -0.9219214
  H     2.0161092    0.7223128   -3.3820552
  H     0.0000000    0.0000000   -4.6295229
  H    -2.0161092   -0.7223128   -3.3820552
  H    -2.0096598   -0.7362253   -0.9219214
 }
 basis=cc-pVTZ
 angstrom
 
 
 hf; ccsd(t)
 
 
 
 {put,xml;noorbitals,nobasis}
 Commands initialized (841), CPU time= 0.01 sec, 704 directives.
 Default parameters read. Elapsed time= 0.08 sec

 Checking input...
 Passed
1


                                         ***  PROGRAM SYSTEM MOLPRO  ***
                                       Copyright, TTI GmbH Stuttgart, 2015
                                    Version 2023.1 linked Mon Jun  5 13:27:10 2023


 **********************************************************************************************************************************
 LABEL *                                                                                                                                                                 
  (16 PROC) 64 bit serial version                                                        DATE: 04-Aug-23          TIME: 11:26:55  
 **********************************************************************************************************************************

 SHA1:             9738a14712571edd23541b6d7c4f3a3d766f8287
 **********************************************************************************************************************************

 Memory per process:       805 MW
 Total memory per node:   1074 MW
 Total GA space:           268 MW

 GA preallocation disabled
 GA check enabled

 Geometry recognized as XYZ


 Variable memory set to 805.3 MW

 SETTING BASIS          =    CC-PVTZ


 Recomputing integrals since basis changed


 Using spherical harmonics

 Library entry C      S cc-pVTZ              selected for orbital group  1
 Library entry C      P cc-pVTZ              selected for orbital group  1
 Library entry C      D cc-pVTZ              selected for orbital group  1
 Library entry C      F cc-pVTZ              selected for orbital group  1
 Library entry H      S cc-pVTZ              selected for orbital group  2
 Library entry H      P cc-pVTZ              selected for orbital group  2
 Library entry H      D cc-pVTZ              selected for orbital group  2


 PROGRAM * SEWARD (Integral evaluation for generally contracted gaussian basis sets)     Author: Roland Lindh, 1990

 Geometry written to block  1 of record 700


 Point group  D2  



 ATOMIC COORDINATES

 NR  ATOM    CHARGE       X              Y              Z

   1  C       6.00    0.000000000    0.000000000    1.397609505
   2  C       6.00    0.000000000    0.000000000   -1.397609505
   3  C       6.00    2.138335092   -0.755369830    2.755109574
   4  C       6.00   -2.138335092    0.755369830    2.755109574
   5  C       6.00    2.138335092    0.755369830   -2.755109574
   6  C       6.00   -2.138335092   -0.755369830   -2.755109574
   7  C       6.00    2.139165249   -0.756595885    5.378611061
   8  C       6.00   -2.139165249    0.756595885    5.378611061
   9  C       6.00    2.139165249    0.756595885   -5.378611061
  10  C       6.00   -2.139165249   -0.756595885   -5.378611061
  11  C       6.00    0.000000000    0.000000000    6.703041301
  12  C       6.00    0.000000000    0.000000000   -6.703041301
  13  H       1.00    3.797706626   -1.391264183    1.742178954
  14  H       1.00   -3.797706626    1.391264183    1.742178954
  15  H       1.00    3.797706626    1.391264183   -1.742178954
  16  H       1.00   -3.797706626   -1.391264183   -1.742178954
  17  H       1.00    3.809894225   -1.364973368    6.391158066
  18  H       1.00   -3.809894225    1.364973368    6.391158066
  19  H       1.00    3.809894225    1.364973368   -6.391158066
  20  H       1.00   -3.809894225   -1.364973368   -6.391158066
  21  H       1.00    0.000000000    0.000000000    8.748530369
  22  H       1.00    0.000000000    0.000000000   -8.748530369

 Bond lengths in Bohr (Angstrom)

 1-2  2.795219011  1-3  2.643079072  1-4  2.643079072  2-5  2.643079072  2-6  2.643079072
     ( 1.479166200)     ( 1.398657212)     ( 1.398657212)     ( 1.398657212)     ( 1.398657212)

  3- 7  2.623501905   3-13  2.045459350   4- 8  2.623501905   4-14  2.045459350   5- 9  2.623501905
       ( 1.388297421)       ( 1.082410474)       ( 1.388297421)       ( 1.082410474)       ( 1.388297421)

  5-15  2.045459350   6-10  2.623501905   6-16  2.045459350   7-11  2.627276299   7-17  2.046145135
       ( 1.082410474)       ( 1.388297421)       ( 1.082410474)       ( 1.390294744)       ( 1.082773376)

  8-11  2.627276299   8-18  2.046145135   9-12  2.627276299   9-19  2.046145135  10-12  2.627276299
       ( 1.390294744)       ( 1.082773376)       ( 1.390294744)       ( 1.082773376)       ( 1.390294744)

 10-20  2.046145135  11-21  2.045489068  12-22  2.045489068
       ( 1.082773376)       ( 1.082426200)       ( 1.082426200)

 Bond angles

  1- 2- 5  120.90429317   1- 2- 6  120.90429317   1- 3- 7  120.93030479   1- 3-13  119.39508733

  1- 4- 8  120.93030479   1- 4-14  119.39508733   2- 1- 3  120.90429317   2- 1- 4  120.90429317

  2- 5- 9  120.93030479   2- 5-15  119.39508733   2- 6-10  120.93030479   2- 6-16  119.39508733

  3- 1- 4  118.19141366   3- 7-11  120.24611520   3- 7-17  119.68644493   4- 8-11  120.24611520

  4- 8-18  119.68644493   5- 2- 6  118.19141366   5- 9-12  120.24611520   5- 9-19  119.68644493

  6-10-12  120.24611520   6-10-20  119.68644493   7- 3-13  119.65704389   7-11- 8  119.45572385

  7-11-21  120.27213807   8- 4-14  119.65704389   8-11-21  120.27213807   9- 5-15  119.65704389

  9-12-10  119.45572385   9-12-22  120.27213807  10- 6-16  119.65704389  10-12-22  120.27213807

 11- 7-17  120.06548326  11- 8-18  120.06548326  12- 9-19  120.06548326  12-10-20  120.06548326

 NUCLEAR CHARGE:                   82
 NUMBER OF PRIMITIVE AOS:         734
 NUMBER OF SYMMETRY AOS:          664
 NUMBER OF CONTRACTIONS:          500   (  128A   +  122B3  +  122B2  +  128B1  )
 NUMBER OF INNER CORE ORBITALS:     0   (    0A   +    0B3  +    0B2  +    0B1  )
 NUMBER OF OUTER CORE ORBITALS:    12   (    4A   +    2B3  +    2B2  +    4B1  )
 NUMBER OF VALENCE ORBITALS:       58   (   15A   +   14B3  +   14B2  +   15B1  )


 NUCLEAR REPULSION ENERGY  601.35158889


 Eigenvalues of metric

         1 0.327E-04 0.300E-03 0.501E-03 0.589E-03 0.106E-02 0.125E-02 0.145E-02 0.157E-02
         2 0.185E-03 0.293E-03 0.562E-03 0.917E-03 0.976E-03 0.126E-02 0.147E-02 0.170E-02
         3 0.123E-03 0.293E-03 0.565E-03 0.939E-03 0.971E-03 0.124E-02 0.136E-02 0.164E-02
         4 0.329E-04 0.108E-03 0.377E-03 0.428E-03 0.640E-03 0.107E-02 0.125E-02 0.136E-02


 Contracted 2-electron integrals neglected if value below      1.0D-12
