
 Working directory              : /home/jovyan/scratch/molpro.wGXn8Z65U7/
 Global scratch directory       : /home/jovyan/scratch/molpro.wGXn8Z65U7/
 Wavefunction directory         : /home/jovyan/wfu/
 Main file repository           : /home/jovyan/scratch/molpro.wGXn8Z65U7/

 id        : cardiff

 Nodes                nprocs
 jupyter-c-2efrancisan    1
 GA implementation: MPI file
 GA implementation (serial work in mppx): MPI file

 Using customized tuning parameters: mindgm=1; mindgv=20; mindgc=4; mindgr=1; noblas=0; minvec=7
 default implementation of scratch files=df  


 Variables initialized (1031), CPU time= 0.00 sec
 
 
 
 geometry={
            5
     N          0.00000000      0.00000000      1.88832511
     N          0.00000000      0.00000000      0.75165554
     C          0.00000000      0.00000000     -0.54332281
     H          0.95203700      0.00000000     -1.04832892
     H         -0.95203700      0.00000000     -1.04832892
 }
 basis=cc-pVDZ
 angstrom
 
 
 hf; mp4
 
 
 
 {put,xml;noorbitals,nobasis}
 Commands initialized (841), CPU time= 0.00 sec, 704 directives.
 Default parameters read. Elapsed time= 0.10 sec

 Checking input...
 Passed
1


                                         ***  PROGRAM SYSTEM MOLPRO  ***
                                       Copyright, TTI GmbH Stuttgart, 2015
                                    Version 2023.1 linked Mon Jun  5 13:27:10 2023


 **********************************************************************************************************************************
 LABEL *                                                                                                                                                                 
  (16 PROC) 64 bit serial version                                                        DATE: 03-Aug-23          TIME: 10:21:34  
 **********************************************************************************************************************************

 SHA1:             9738a14712571edd23541b6d7c4f3a3d766f8287
 **********************************************************************************************************************************

 Memory per process:       805 MW
 Total memory per node:   1074 MW
 Total GA space:           268 MW

 GA preallocation disabled
 GA check enabled

 Geometry recognized as XYZ


 Variable memory set to 805.3 MW

 SETTING BASIS          =    CC-PVDZ


 Recomputing integrals since basis changed


 Using spherical harmonics

 Library entry N      S cc-pVDZ              selected for orbital group  1
 Library entry N      P cc-pVDZ              selected for orbital group  1
 Library entry N      D cc-pVDZ              selected for orbital group  1
 Library entry C      S cc-pVDZ              selected for orbital group  2
 Library entry C      P cc-pVDZ              selected for orbital group  2
 Library entry C      D cc-pVDZ              selected for orbital group  2
 Library entry H      S cc-pVDZ              selected for orbital group  3
 Library entry H      P cc-pVDZ              selected for orbital group  3


 PROGRAM * SEWARD (Integral evaluation for generally contracted gaussian basis sets)     Author: Roland Lindh, 1990

 Geometry written to block  1 of record 700


 Point group  C2v 



 ATOMIC COORDINATES

 NR  ATOM    CHARGE       X              Y              Z

   1  N       7.00    0.000000000    0.000000000    3.568417292
   2  N       7.00    0.000000000    0.000000000    1.420423111
   3  C       6.00    0.000000000    0.000000000   -1.026731308
   4  H       1.00    1.799089191    0.000000000   -1.981054547
   5  H       1.00   -1.799089191    0.000000000   -1.981054547

 Bond lengths in Bohr (Angstrom)

 1-2  2.147994181  2-3  2.447154419  3-4  2.036530078  3-5  2.036530078
     ( 1.136669570)     ( 1.294978350)     ( 1.077685307)     ( 1.077685307)

 Bond angles

  1-2-3  180.00000000   2-3-4  117.94362484   2-3-5  117.94362484   4-3-5  124.11275032

 NUCLEAR CHARGE:                   22
 NUMBER OF PRIMITIVE AOS:          95
 NUMBER OF SYMMETRY AOS:           92
 NUMBER OF CONTRACTIONS:           52   (   25A1  +   13B1  +   10B2  +    4A2  )
 NUMBER OF INNER CORE ORBITALS:     0   (    0A1  +    0B1  +    0B2  +    0A2  )
 NUMBER OF OUTER CORE ORBITALS:     3   (    3A1  +    0B1  +    0B2  +    0A2  )
 NUMBER OF VALENCE ORBITALS:       14   (    7A1  +    4B1  +    3B2  +    0A2  )


 NUCLEAR REPULSION ENERGY   61.32323683

 Eigenvalues of metric

         1 0.312E-02 0.713E-02 0.177E-01 0.377E-01 0.508E-01 0.570E-01 0.926E-01 0.122E+00
         2 0.264E-01 0.368E-01 0.105E+00 0.135E+00 0.201E+00 0.278E+00 0.406E+00 0.928E+00
         3 0.912E-01 0.162E+00 0.204E+00 0.324E+00 0.452E+00 0.569E+00 0.125E+01 0.164E+01
         4 0.409E+00 0.850E+00 0.115E+01 0.159E+01


 Contracted 2-electron integrals neglected if value below      1.0D-11
 AO integral compression algorithm  1   Integral accuracy      1.0D-11

     1.573 MB (compressed) written to integral file ( 67.4%)


 NUMBER OF SORTED TWO-ELECTRON INTEGRALS:     269251.     BUFFER LENGTH:  32768
 NUMBER OF SEGMENTS:   1  SEGMENT LENGTH:     269251      RECORD LENGTH: 524288

 Memory used in sort:       0.83 MW

 SORT1 READ      325214. AND WROTE      255307. INTEGRALS IN      1 RECORDS. CPU TIME:     0.01 SEC, REAL TIME:     0.08 SEC
 SORT2 READ      255307. AND WROTE      269251. INTEGRALS IN      6 RECORDS. CPU TIME:     0.02 SEC, REAL TIME:     0.02 SEC

 FILE SIZES:   FILE 1:    31.7 MBYTE,  FILE 4:     4.3 MBYTE,   TOTAL:     36.0 MBYTE

 OPERATOR DM      FOR CENTER  0  COORDINATES:    0.000000    0.000000    0.000000


 **********************************************************************************************************************************
 DATASETS  * FILE   NREC   LENGTH (MB)   RECORD NAMES
              1      19       29.89       500      610      700      900      950      970     1000      129      960     1100   
                                          VAR    BASINP    GEOM    SYMINP    ZMAT    AOBASIS   BASIS     P2S    ABASIS      S 
                                         1400     1410     1200     1210     1080     1600     1650     1300     1700   
                                           T        V       H0       H01     AOSYM     SMH    MOLCAS    ERIS     OPER   

 PROGRAMS   *        TOTAL       INT
 CPU TIMES  *         0.69      0.56
 REAL TIME  *         1.77 SEC
 DISK USED  *        34.68 MB
 **********************************************************************************************************************************


 Program * Restricted Hartree-Fock

 Orbital guess generated from atomic densities. Full valence occupancy:   10   4   3   0

 Initial occupancy:   7   2   2   0

 NELEC=   22   SYM=1   MS2= 0   THRE=1.0D-08   THRD=3.2D-06   THRG=3.2D-06  HFMA2=F  DIIS_START=2   DIIS_MAX=10   DIIS_INCORE=F

 Level shifts:    0.00 (CLOSED)    0.00 (OPEN)    0.30 (GAP_MIN)

 ITER           ETOT              DE          GRAD        DDIFF     DIIS  NEXP   TIME(IT)  TIME(TOT)  DIAG
   1     -147.80717719    -147.80717719     0.00D+00     0.27D+00     0     0       0.00      0.00    start
   2     -147.84060378      -0.03342659     0.17D-01     0.34D-01     1     0       0.00      0.00    diag
   3     -147.85560013      -0.01499635     0.11D-01     0.15D-01     2     0       0.01      0.01    diag
   4     -147.85702499      -0.00142486     0.21D-02     0.46D-02     3     0       0.00      0.01    diag
   5     -147.85754526      -0.00052027     0.12D-02     0.25D-02     4     0       0.00      0.01    diag
   6     -147.85777379      -0.00022853     0.55D-03     0.19D-02     5     0       0.01      0.02    diag
   7     -147.85783607      -0.00006229     0.25D-03     0.13D-02     6     0       0.00      0.02    diag
   8     -147.85783945      -0.00000337     0.67D-04     0.34D-03     7     0       0.00      0.02    fixocc
   9     -147.85783952      -0.00000008     0.15D-04     0.42D-04     8     0       0.00      0.02    diag
  10     -147.85783953      -0.00000001     0.49D-05     0.13D-04     9     0       0.01      0.03    diag/orth
  11     -147.85783953      -0.00000000     0.11D-05     0.39D-05     9     0       0.00      0.03    diag
  12     -147.85783953      -0.00000000     0.17D-06     0.66D-06     9     0       0.00      0.03    diag
  13     -147.85783953       0.00000000     0.21D-07     0.51D-07     0     0       0.00      0.03    diag

 Final occupancy:   7   2   2   0

 !RHF STATE 1.1 Energy               -147.857839531732
  RHF One-electron energy            -320.659188840378
  RHF Two-electron energy             111.478112482919
  RHF Kinetic energy                  147.578424383361
  RHF Nuclear energy                   61.323236825727
  RHF Virial quotient                  -1.001893333321

 !RHF STATE 1.1 Dipole moment           0.00000000     0.00000000    -0.58036686
 Dipole moment /Debye                   0.00000000     0.00000000    -1.47514542

 Orbital energies:

           1.1          2.1          3.1          4.1          5.1          6.1          7.1          8.1          9.1
    -15.738024   -15.657487   -11.269696    -1.457499    -1.119936    -0.754853    -0.649429     0.200365     0.351402

           1.2          2.2          3.2          4.2
     -0.690544    -0.533944     0.135609     0.272615

           1.3          2.3          3.3          4.3
     -0.655459    -0.324613     0.182884     0.692633

           1.4          2.4
      1.168977     1.737213


 HOMO      2.3    -0.324613 =      -8.8332eV
 LUMO      3.2     0.135609 =       3.6901eV
 LUMO-HOMO         0.460221 =      12.5233eV

 Orbitals saved in record  2100.2


 **********************************************************************************************************************************
 DATASETS  * FILE   NREC   LENGTH (MB)   RECORD NAMES
              1      19       29.89       500      610      700      900      950      970     1000      129      960     1100   
                                          VAR    BASINP    GEOM    SYMINP    ZMAT    AOBASIS   BASIS     P2S    ABASIS      S 
                                         1400     1410     1200     1210     1080     1600     1650     1300     1700   
                                           T        V       H0       H01     AOSYM     SMH    MOLCAS    ERIS     OPER   

              2       4        0.46       700     1000      520     2100   
                                         GEOM     BASIS   MCVARS     RHF  

 PROGRAMS   *        TOTAL    HF-SCF       INT
 CPU TIMES  *         0.74      0.05      0.56
 REAL TIME  *         1.83 SEC
 DISK USED  *        34.68 MB
 **********************************************************************************************************************************


 PROGRAM * MP4 (Closed-shell)     Authors: C. Hampel, H.-J. Werner, 1991, M. Deegan, P.J. Knowles, 1992


 Convergence thresholds:  THRVAR = 1.00D-08  THRDEN = 1.00D-06

 MP4(T)     terms to be evaluated (factor= 0.000)


 Number of core orbitals:           3 (   3   0   0   0 )
 Number of closed-shell orbitals:   8 (   4   2   2   0 )
 Number of external orbitals:      41 (  18  11   8   4 )

 Molecular orbitals read from record     2100.2  Type=RHF/CANONICAL  

 Number of N-1 electron functions:               8
 Number of N-2 electron functions:              36
 Number of singly external CSFs:               110
 Number of doubly external CSFs:             14432
 Total number of CSFs:                       14543

 Length of J-op  integral file:               0.00 MB
 Length of K-op  integral file:               0.12 MB

 Memory could be reduced to 0.28 Mwords without degradation in triples

 Integral transformation finished. Total CPU:   0.01 sec, npass=  1  Memory used:   0.14 MW

 Reference energy:                   -147.85783953

                        CORR.ENERGY   TOTAL ENERGY   ENERGY CHANGE
 MP2:                   -0.46341054  -148.32125007    -0.46341054

 SCS-MP2 correlation energy:           -0.45055435   (PS=  1.200000  PT=  0.333333)
 SCS-MP2 total energy:               -148.30839388

 MP3(D):                -0.46713466  -148.32497419    -0.00372412
 MP4(DQ):               -0.47010603  -148.32794556    -0.00297137
 MP4(SDQ):              -0.47733840  -148.33517793    -0.00723236

 Norm of t1 vector:      0.07944082      S-energy:    -0.00723236      T1 diagnostic:  0.01404329


 Total CPU time for triples:      0.10 sec


 RESULTS
 =======

  Reference energy                   -147.857839531732
  MP4(SDQ) singlet pair energy         -0.305678138584
  MP4(SDQ) triplet pair energy         -0.164427893100
  MP4(SDQ) correlation energy          -0.477338395157

  Triples contribution                 -0.022661363583
  Total correlation energy             -0.499999758740

  MP4(SDQ) total energy              -148.335177926889
 !MP4(SDTQ) total energy             -148.357839290472

 Timing summary (sec):

 STEP                 CPU(USER)    SYS     CPU(TOT)    WALL
 Transformation          0.01      0.01      0.02      0.11
 CCSD iterations         1.04      0.00      1.04      0.04
 Triples                 0.10      0.01      0.11      0.12

 Program statistics:

 Available memory in ccsd:               805306105
 Min. memory needed in ccsd:                 53353
 Max. memory used in ccsd:                   63523
 Max. memory used in cckext:                101269 ( 1 integral passes)



 **********************************************************************************************************************************
 DATASETS  * FILE   NREC   LENGTH (MB)   RECORD NAMES
              1      20       30.79       500      610      700      900      950      970     1000      129      960     1100   
                                          VAR    BASINP    GEOM    SYMINP    ZMAT    AOBASIS   BASIS     P2S    ABASIS      S 
                                         1400     1410     1200     1210     1080     1600     1650     1300     1700     1380   
                                           T        V       H0       H01     AOSYM     SMH    MOLCAS    ERIS     OPER     JKOP   

              2       4        0.46       700     1000      520     2100   
                                         GEOM     BASIS   MCVARS     RHF  

 PROGRAMS   *        TOTAL       MP4    HF-SCF       INT
 CPU TIMES  *         0.92      0.18      0.05      0.56
 REAL TIME  *         2.14 SEC
 DISK USED  *        34.68 MB
 **********************************************************************************************************************************

 Dump information in style XML to xml output                                                                      

 Orbitals will not be exported.

 **********************************************************************************************************************************

 MP4/cc-pVDZ energy=   -148.357839290472

             MP4          HF-SCF
   -148.35783929   -147.85783953
 **********************************************************************************************************************************
 Molpro calculation terminated
