
 Working directory              : /home/jovyan/scratch/molpro.zNv3WCuyBb/
 Global scratch directory       : /home/jovyan/scratch/molpro.zNv3WCuyBb/
 Wavefunction directory         : /home/jovyan/wfu/
 Main file repository           : /home/jovyan/scratch/molpro.zNv3WCuyBb/

 id        : cardiff

 Nodes                nprocs
 jupyter-c-2efrancisan    1
 GA implementation: MPI file
 GA implementation (serial work in mppx): MPI file

 Using customized tuning parameters: mindgm=1; mindgv=20; mindgc=4; mindgr=1; noblas=0; minvec=7
 default implementation of scratch files=df  


 Variables initialized (1031), CPU time= 0.00 sec
 
 
 
 geometry={
            5
     N          0.00000000      0.00000000      1.88832511
     N          0.00000000      0.00000000      0.75165554
     C          0.00000000      0.00000000     -0.54332281
     H          0.95203700      0.00000000     -1.04832892
     H         -0.95203700      0.00000000     -1.04832892
 }
 basis=cc-pVTZ
 angstrom
 
 
 hf; mp4
 
 
 
 {put,xml;noorbitals,nobasis}
 Commands initialized (841), CPU time= 0.01 sec, 704 directives.
 Default parameters read. Elapsed time= 0.08 sec

 Checking input...
 Passed
1


                                         ***  PROGRAM SYSTEM MOLPRO  ***
                                       Copyright, TTI GmbH Stuttgart, 2015
                                    Version 2023.1 linked Mon Jun  5 13:27:10 2023


 **********************************************************************************************************************************
 LABEL *                                                                                                                                                                 
  (16 PROC) 64 bit serial version                                                        DATE: 03-Aug-23          TIME: 10:41:55  
 **********************************************************************************************************************************

 SHA1:             9738a14712571edd23541b6d7c4f3a3d766f8287
 **********************************************************************************************************************************

 Memory per process:       805 MW
 Total memory per node:   1074 MW
 Total GA space:           268 MW

 GA preallocation disabled
 GA check enabled

 Geometry recognized as XYZ


 Variable memory set to 805.3 MW

 SETTING BASIS          =    CC-PVTZ


 Recomputing integrals since basis changed


 Using spherical harmonics

 Library entry N      S cc-pVTZ              selected for orbital group  1
 Library entry N      P cc-pVTZ              selected for orbital group  1
 Library entry N      D cc-pVTZ              selected for orbital group  1
 Library entry N      F cc-pVTZ              selected for orbital group  1
 Library entry C      S cc-pVTZ              selected for orbital group  2
 Library entry C      P cc-pVTZ              selected for orbital group  2
 Library entry C      D cc-pVTZ              selected for orbital group  2
 Library entry C      F cc-pVTZ              selected for orbital group  2
 Library entry H      S cc-pVTZ              selected for orbital group  3
 Library entry H      P cc-pVTZ              selected for orbital group  3
 Library entry H      D cc-pVTZ              selected for orbital group  3


 PROGRAM * SEWARD (Integral evaluation for generally contracted gaussian basis sets)     Author: Roland Lindh, 1990

 Geometry written to block  1 of record 700


 Point group  C2v 



 ATOMIC COORDINATES

 NR  ATOM    CHARGE       X              Y              Z

   1  N       7.00    0.000000000    0.000000000    3.568417292
   2  N       7.00    0.000000000    0.000000000    1.420423111
   3  C       6.00    0.000000000    0.000000000   -1.026731308
   4  H       1.00    1.799089191    0.000000000   -1.981054547
   5  H       1.00   -1.799089191    0.000000000   -1.981054547

 Bond lengths in Bohr (Angstrom)

 1-2  2.147994181  2-3  2.447154419  3-4  2.036530078  3-5  2.036530078
     ( 1.136669570)     ( 1.294978350)     ( 1.077685307)     ( 1.077685307)

 Bond angles

  1-2-3  180.00000000   2-3-4  117.94362484   2-3-5  117.94362484   4-3-5  124.11275032

 NUCLEAR CHARGE:                   22
 NUMBER OF PRIMITIVE AOS:         175
 NUMBER OF SYMMETRY AOS:          158
 NUMBER OF CONTRACTIONS:          118   (   49A1  +   31B1  +   25B2  +   13A2  )
 NUMBER OF INNER CORE ORBITALS:     0   (    0A1  +    0B1  +    0B2  +    0A2  )
 NUMBER OF OUTER CORE ORBITALS:     3   (    3A1  +    0B1  +    0B2  +    0A2  )
 NUMBER OF VALENCE ORBITALS:       14   (    7A1  +    4B1  +    3B2  +    0A2  )


 NUCLEAR REPULSION ENERGY   61.32323683

 Eigenvalues of metric

         1 0.737E-03 0.127E-02 0.157E-02 0.193E-02 0.280E-02 0.625E-02 0.117E-01 0.213E-01
         2 0.180E-02 0.757E-02 0.145E-01 0.159E-01 0.230E-01 0.435E-01 0.509E-01 0.618E-01
         3 0.199E-01 0.256E-01 0.396E-01 0.526E-01 0.657E-01 0.117E+00 0.171E+00 0.229E+00
         4 0.712E-01 0.252E+00 0.328E+00 0.461E+00 0.509E+00 0.587E+00 0.787E+00 0.108E+01


 Contracted 2-electron integrals neglected if value below      1.0D-11
 AO integral compression algorithm  1   Integral accuracy      1.0D-11

     30.671 MB (compressed) written to integral file ( 49.5%)


 NUMBER OF SORTED TWO-ELECTRON INTEGRALS:    6471700.     BUFFER LENGTH:  32768
 NUMBER OF SEGMENTS:   1  SEGMENT LENGTH:    6471700      RECORD LENGTH: 524288

 Memory used in sort:       7.03 MW

 SORT1 READ     7773050. AND WROTE     5921424. INTEGRALS IN     17 RECORDS. CPU TIME:     0.18 SEC, REAL TIME:     0.47 SEC
 SORT2 READ     5921424. AND WROTE     6471700. INTEGRALS IN    117 RECORDS. CPU TIME:     0.20 SEC, REAL TIME:     0.24 SEC

 FILE SIZES:   FILE 1:    61.1 MBYTE,  FILE 4:    71.4 MBYTE,   TOTAL:    132.4 MBYTE

 OPERATOR DM      FOR CENTER  0  COORDINATES:    0.000000    0.000000    0.000000


 **********************************************************************************************************************************
 DATASETS  * FILE   NREC   LENGTH (MB)   RECORD NAMES
              1      19       53.73       500      610      700      900      950      970     1000      129      960     1100   
                                          VAR    BASINP    GEOM    SYMINP    ZMAT    AOBASIS   BASIS     P2S    ABASIS      S 
                                         1400     1410     1200     1210     1080     1600     1650     1300     1700   
                                           T        V       H0       H01     AOSYM     SMH    MOLCAS    ERIS     OPER   

 PROGRAMS   *        TOTAL       INT
 CPU TIMES  *         2.34      2.21
 REAL TIME  *         4.27 SEC
 DISK USED  *       126.71 MB
 **********************************************************************************************************************************


 Program * Restricted Hartree-Fock

 Orbital guess generated from atomic densities. Full valence occupancy:   10   4   3   0

 Initial occupancy:   7   2   2   0

 NELEC=   22   SYM=1   MS2= 0   THRE=1.0D-08   THRD=3.2D-06   THRG=3.2D-06  HFMA2=F  DIIS_START=2   DIIS_MAX=10   DIIS_INCORE=F

 Level shifts:    0.00 (CLOSED)    0.00 (OPEN)    0.30 (GAP_MIN)

 ITER           ETOT              DE          GRAD        DDIFF     DIIS  NEXP   TIME(IT)  TIME(TOT)  DIAG
   1     -147.84949876    -147.84949876     0.00D+00     0.13D+00     0     0       0.04      0.07    start
   2     -147.88236624      -0.03286748     0.11D-01     0.15D-01     1     0       0.04      0.11    diag
   3     -147.89736127      -0.01499503     0.71D-02     0.64D-02     2     0       0.03      0.14    diag
   4     -147.89877703      -0.00141576     0.13D-02     0.20D-02     3     0       0.04      0.18    diag
   5     -147.89926658      -0.00048956     0.79D-03     0.11D-02     4     0       0.04      0.22    diag
   6     -147.89949690      -0.00023031     0.36D-03     0.86D-03     5     0       0.03      0.25    diag
   7     -147.89956545      -0.00006855     0.17D-03     0.63D-03     6     0       0.04      0.29    diag
   8     -147.89957048      -0.00000503     0.52D-04     0.19D-03     7     0       0.04      0.33    fixocc
   9     -147.89957059      -0.00000011     0.11D-04     0.24D-04     8     0       0.04      0.37    diag
  10     -147.89957060      -0.00000001     0.36D-05     0.65D-05     9     0       0.04      0.41    diag/orth
  11     -147.89957060      -0.00000000     0.86D-06     0.22D-05     9     0       0.03      0.44    diag
  12     -147.89957060      -0.00000000     0.17D-06     0.28D-06     0     0       0.04      0.48    diag

 Final occupancy:   7   2   2   0

 !RHF STATE 1.1 Energy               -147.899570598291
  RHF One-electron energy            -320.727751195911
  RHF Two-electron energy             111.504943771893
  RHF Kinetic energy                  147.602167352920
  RHF Nuclear energy                   61.323236825727
  RHF Virial quotient                  -1.002014897550

 !RHF STATE 1.1 Dipole moment           0.00000000     0.00000000    -0.60384182
 Dipole moment /Debye                   0.00000000     0.00000000    -1.53481282

 Orbital energies:

           1.1          2.1          3.1          4.1          5.1          6.1          7.1          8.1          9.1
    -15.734114   -15.653216   -11.265251    -1.455558    -1.120407    -0.758273    -0.654041     0.155463     0.253597

           1.2          2.2          3.2          4.2
     -0.693208    -0.537545     0.125391     0.218983

           1.3          2.3          3.3          4.3
     -0.658466    -0.328853     0.167193     0.458505

           1.4          2.4
      0.709917     1.030172


 HOMO      2.3    -0.328853 =      -8.9485eV
 LUMO      3.2     0.125391 =       3.4121eV
 LUMO-HOMO         0.454244 =      12.3606eV

 Orbitals saved in record  2100.2


 **********************************************************************************************************************************
 DATASETS  * FILE   NREC   LENGTH (MB)   RECORD NAMES
              1      19       53.73       500      610      700      900      950      970     1000      129      960     1100   
                                          VAR    BASINP    GEOM    SYMINP    ZMAT    AOBASIS   BASIS     P2S    ABASIS      S 
                                         1400     1410     1200     1210     1080     1600     1650     1300     1700   
                                           T        V       H0       H01     AOSYM     SMH    MOLCAS    ERIS     OPER   

              2       4        0.52       700     1000      520     2100   
                                         GEOM     BASIS   MCVARS     RHF  

 PROGRAMS   *        TOTAL    HF-SCF       INT
 CPU TIMES  *         2.83      0.49      2.21
 REAL TIME  *         4.85 SEC
 DISK USED  *       126.71 MB
 **********************************************************************************************************************************


 PROGRAM * MP4 (Closed-shell)     Authors: C. Hampel, H.-J. Werner, 1991, M. Deegan, P.J. Knowles, 1992


 Convergence thresholds:  THRVAR = 1.00D-08  THRDEN = 1.00D-06

 MP4(T)     terms to be evaluated (factor= 0.000)


 Number of core orbitals:           3 (   3   0   0   0 )
 Number of closed-shell orbitals:   8 (   4   2   2   0 )
 Number of external orbitals:     107 (  42  29  23  13 )

 Molecular orbitals read from record     2100.2  Type=RHF/CANONICAL  

 Number of N-1 electron functions:               8
 Number of N-2 electron functions:              36
 Number of singly external CSFs:               272
 Number of doubly external CSFs:             95528
 Total number of CSFs:                       95801

 Length of J-op  integral file:               0.00 MB
 Length of K-op  integral file:               0.35 MB

 Memory could be reduced to 3.46 Mwords without degradation in triples

 Integral transformation finished. Total CPU:   0.15 sec, npass=  1  Memory used:   0.74 MW

 Reference energy:                   -147.89957060

                        CORR.ENERGY   TOTAL ENERGY   ENERGY CHANGE
 MP2:                   -0.56423457  -148.46380517    -0.56423457

 SCS-MP2 correlation energy:           -0.55363355   (PS=  1.200000  PT=  0.333333)
 SCS-MP2 total energy:               -148.45320415

 MP3(D):                -0.56287142  -148.46244202     0.00136315
 MP4(DQ):               -0.56207713  -148.46164773     0.00079429
 MP4(SDQ):              -0.57094399  -148.47051458    -0.00886686

 Norm of t1 vector:      0.08277638      S-energy:    -0.00886686      T1 diagnostic:  0.01463293


 Total CPU time for triples:      1.21 sec


 RESULTS
 =======

  Reference energy                   -147.899570598291
  MP4(SDQ) singlet pair energy         -0.371125522610
  MP4(SDQ) triplet pair energy         -0.190951606442
  MP4(SDQ) correlation energy          -0.570943985056

  Triples contribution                 -0.034876195842
  Total correlation energy             -0.605820180897

  MP4(SDQ) total energy              -148.470514583347
 !MP4(SDTQ) total energy             -148.505390779188

 Timing summary (sec):

 STEP                 CPU(USER)    SYS     CPU(TOT)    WALL
 Transformation          0.16      0.03      0.19      0.70
 CCSD iterations         3.29      0.04      3.33      0.27
 Triples                 1.21      0.07      1.28      1.31

 Program statistics:

 Available memory in ccsd:               805306105
 Min. memory needed in ccsd:                304063
 Max. memory used in ccsd:                  382135
 Max. memory used in cckext:                398335 ( 1 integral passes)



 **********************************************************************************************************************************
 DATASETS  * FILE   NREC   LENGTH (MB)   RECORD NAMES
              1      20       65.01       500      610      700      900      950      970     1000      129      960     1100   
                                          VAR    BASINP    GEOM    SYMINP    ZMAT    AOBASIS   BASIS     P2S    ABASIS      S 
                                         1400     1410     1200     1210     1080     1600     1650     1300     1700     1380   
                                           T        V       H0       H01     AOSYM     SMH    MOLCAS    ERIS     OPER     JKOP   

              2       4        0.52       700     1000      520     2100   
                                         GEOM     BASIS   MCVARS     RHF  

 PROGRAMS   *        TOTAL       MP4    HF-SCF       INT
 CPU TIMES  *         4.47      1.64      0.49      2.21
 REAL TIME  *         7.18 SEC
 DISK USED  *       126.71 MB
 **********************************************************************************************************************************

 Dump information in style XML to xml output                                                                      

 Orbitals will not be exported.

 **********************************************************************************************************************************

 MP4/cc-pVTZ energy=   -148.505390779188

             MP4          HF-SCF
   -148.50539078   -147.89957060
 **********************************************************************************************************************************
 Molpro calculation terminated
