
 Working directory              : /home/jovyan/scratch/molpro.j0Ga8HyAP5/
 Global scratch directory       : /home/jovyan/scratch/molpro.j0Ga8HyAP5/
 Wavefunction directory         : /home/jovyan/wfu/
 Main file repository           : /home/jovyan/scratch/molpro.j0Ga8HyAP5/

 id        : cardiff

 Nodes                nprocs
 jupyter-c-2efrancisan    1
 GA implementation: MPI file
 GA implementation (serial work in mppx): MPI file

 Using customized tuning parameters: mindgm=1; mindgv=20; mindgc=4; mindgr=1; noblas=0; minvec=7
 default implementation of scratch files=df  


 Variables initialized (1031), CPU time= 0.01 sec
 
 
 
 geometry={
 8
  C     0.0000000    0.0000000   -0.7636815
  C     0.0000000    0.0000000    0.7636815
  H     1.0087494    0.0000000   -1.1676039
  H    -0.5043747   -0.8736026   -1.1676039
  H    -0.5043747    0.8736026   -1.1676039
  H     1.0087494    0.0000000    1.1676039
  H    -0.5043747    0.8736026    1.1676039
  H    -0.5043747   -0.8736026    1.1676039
 }
 basis=cc-pVTZ
 angstrom
 
 
 hf; papt;mp3
 
 
 
 {put,xml;noorbitals,nobasis}
 Commands initialized (841), CPU time= 0.01 sec, 704 directives.
 Default parameters read. Elapsed time= 0.08 sec

 Checking input...
 Passed
1


                                         ***  PROGRAM SYSTEM MOLPRO  ***
                                       Copyright, TTI GmbH Stuttgart, 2015
                                    Version 2023.1 linked Mon Jun  5 13:27:10 2023


 **********************************************************************************************************************************
 LABEL *                                                                                                                                                                 
  (16 PROC) 64 bit serial version                                                        DATE: 03-Aug-23          TIME: 22:02:02  
 **********************************************************************************************************************************

 SHA1:             9738a14712571edd23541b6d7c4f3a3d766f8287
 **********************************************************************************************************************************

 Memory per process:       805 MW
 Total memory per node:   1074 MW
 Total GA space:           268 MW

 GA preallocation disabled
 GA check enabled

 Geometry recognized as XYZ


 Variable memory set to 805.3 MW

 SETTING BASIS          =    CC-PVTZ


 Recomputing integrals since basis changed


 Using spherical harmonics

 Library entry C      S cc-pVTZ              selected for orbital group  1
 Library entry C      P cc-pVTZ              selected for orbital group  1
 Library entry C      D cc-pVTZ              selected for orbital group  1
 Library entry C      F cc-pVTZ              selected for orbital group  1
 Library entry H      S cc-pVTZ              selected for orbital group  2
 Library entry H      P cc-pVTZ              selected for orbital group  2
 Library entry H      D cc-pVTZ              selected for orbital group  2


 PROGRAM * SEWARD (Integral evaluation for generally contracted gaussian basis sets)     Author: Roland Lindh, 1990

 Geometry written to block  1 of record 700


 Point group  C2v 



 ATOMIC COORDINATES

 NR  ATOM    CHARGE       X              Y              Z

   1  C       6.00    0.000000000    0.000000000   -1.443148881
   2  C       6.00    0.000000000    0.000000000    1.443148881
   3  H       1.00    1.906260094    0.000000000   -2.206451593
   4  H       1.00    1.906260094    0.000000000    2.206451593
   5  H       1.00   -0.953130047   -1.650869656   -2.206451593
   6  H       1.00   -0.953130047    1.650869656   -2.206451593
   7  H       1.00   -0.953130047    1.650869656    2.206451593
   8  H       1.00   -0.953130047   -1.650869656    2.206451593

 Bond lengths in Bohr (Angstrom)

 1-2  2.886297763  1-3  2.053401709  1-5  2.053401699  1-6  2.053401699  2-4  2.053401709
     ( 1.527363000)     ( 1.086613389)     ( 1.086613384)     ( 1.086613384)     ( 1.086613389)

 2-7  2.053401699  2-8  2.053401699
     ( 1.086613384)     ( 1.086613384)

 Bond angles

  1-2-4  111.82210085   1-2-7  111.82210096   1-2-8  111.82210096   2-1-3  111.82210085

  2-1-5  111.82210096   2-1-6  111.82210096   3-1-5  107.02145142   3-1-6  107.02145142

  4-2-7  107.02145142   4-2-8  107.02145142   5-1-6  107.02145093   7-2-8  107.02145093

 NUCLEAR CHARGE:                   18
 NUMBER OF PRIMITIVE AOS:         196
 NUMBER OF SYMMETRY AOS:          180
 NUMBER OF CONTRACTIONS:          144   (   44A1  +   28B1  +   44B2  +   28A2  )
 NUMBER OF INNER CORE ORBITALS:     0   (    0A1  +    0B1  +    0B2  +    0A2  )
 NUMBER OF OUTER CORE ORBITALS:     2   (    1A1  +    0B1  +    1B2  +    0A2  )
 NUMBER OF VALENCE ORBITALS:       14   (    5A1  +    2B1  +    5B2  +    2A2  )


 NUCLEAR REPULSION ENERGY   42.33358783


 Eigenvalues of metric

         1 0.145E-02 0.199E-02 0.465E-02 0.108E-01 0.141E-01 0.313E-01 0.314E-01 0.358E-01
         2 0.199E-02 0.108E-01 0.313E-01 0.358E-01 0.532E-01 0.104E+00 0.133E+00 0.144E+00
         3 0.967E-03 0.144E-02 0.169E-02 0.319E-02 0.793E-02 0.972E-02 0.122E-01 0.170E-01
         4 0.144E-02 0.793E-02 0.122E-01 0.170E-01 0.307E-01 0.495E-01 0.844E-01 0.126E+00


 Contracted 2-electron integrals neglected if value below      1.0D-11
 AO integral compression algorithm  1   Integral accuracy      1.0D-11

     83.362 MB (compressed) written to integral file ( 53.4%)


 NUMBER OF SORTED TWO-ELECTRON INTEGRALS:   13957892.     BUFFER LENGTH:  32768
 NUMBER OF SEGMENTS:   1  SEGMENT LENGTH:   13957892      RECORD LENGTH: 524288

 Memory used in sort:      14.51 MW

 SORT1 READ    19528472. AND WROTE    13522256. INTEGRALS IN     39 RECORDS. CPU TIME:     0.37 SEC, REAL TIME:     0.53 SEC
 SORT2 READ    13522256. AND WROTE    13957892. INTEGRALS IN    318 RECORDS. CPU TIME:     0.44 SEC, REAL TIME:     0.54 SEC

 FILE SIZES:   FILE 1:   113.9 MBYTE,  FILE 4:   163.6 MBYTE,   TOTAL:    277.6 MBYTE

 OPERATOR DM      FOR CENTER  0  COORDINATES:    0.000000    0.000000    0.000000


 **********************************************************************************************************************************
 DATASETS  * FILE   NREC   LENGTH (MB)   RECORD NAMES
              1      19       87.69       500      610      700      900      950      970     1000      129      960     1100   
                                          VAR    BASINP    GEOM    SYMINP    ZMAT    AOBASIS   BASIS     P2S    ABASIS      S 
                                         1400     1410     1200     1210     1080     1600     1650     1300     1700   
                                           T        V       H0       H01     AOSYM     SMH    MOLCAS    ERIS     OPER   

 PROGRAMS   *        TOTAL       INT
 CPU TIMES  *         4.52      4.39
 REAL TIME  *         7.27 SEC
 DISK USED  *       265.20 MB
 **********************************************************************************************************************************


 Program * Restricted Hartree-Fock

 Orbital guess generated from atomic densities. Full valence occupancy:    6   2   6   2

 Initial occupancy:   4   1   3   1

 NELEC=   18   SYM=1   MS2= 0   THRE=1.0D-08   THRD=3.2D-06   THRG=3.2D-06  HFMA2=F  DIIS_START=2   DIIS_MAX=10   DIIS_INCORE=F

 Level shifts:    0.00 (CLOSED)    0.00 (OPEN)    0.30 (GAP_MIN)

 ITER           ETOT              DE          GRAD        DDIFF     DIIS  NEXP   TIME(IT)  TIME(TOT)  DIAG
   1      -79.22399865     -79.22399865     0.00D+00     0.11D+00     0     0       0.06      0.12    start
   2      -79.25084723      -0.02684857     0.78D-02     0.11D-01     1     0       0.06      0.18    diag
   3      -79.25451964      -0.00367242     0.31D-02     0.32D-02     2     0       0.05      0.23    diag
   4      -79.25507618      -0.00055654     0.90D-03     0.12D-02     3     0       0.06      0.29    diag
   5      -79.25508749      -0.00001130     0.11D-03     0.26D-03     4     0       0.06      0.35    diag
   6      -79.25508763      -0.00000014     0.13D-04     0.37D-04     5     0       0.06      0.41    diag
   7      -79.25508763      -0.00000000     0.15D-05     0.36D-05     6     0       0.06      0.47    diag
   8      -79.25508763      -0.00000000     0.25D-06     0.49D-06     7     0       0.05      0.52    fixocc
   9      -79.25508763      -0.00000000     0.30D-07     0.79D-07     0     0       0.05      0.57    diag

 Final occupancy:   4   1   3   1

 !RHF STATE 1.1 Energy                -79.255087629309
  RHF One-electron energy            -189.273274565229
  RHF Two-electron energy              67.684599110781
  RHF Kinetic energy                   79.206111265273
  RHF Nuclear energy                   42.333587825140
  RHF Virial quotient                  -1.000618340722

 !RHF STATE 1.1 Dipole moment          -0.00000001     0.00000000     0.00000000
 Dipole moment /Debye                  -0.00000001     0.00000000     0.00000000

 Orbital energies:

           1.1          2.1          3.1          4.1          5.1          6.1
    -11.208507    -1.017433    -0.596857    -0.512324     0.143245     0.199371

           1.2          2.2          3.2
     -0.596857     0.199371     0.376115

           1.3          2.3          3.3          4.3          5.3
    -11.207913    -0.844478    -0.483835     0.177985     0.268353

           1.4          2.4          3.4
     -0.483835     0.268353     0.457308


 HOMO      1.4    -0.483835 =     -13.1658eV
 LUMO      5.1     0.143245 =       3.8979eV
 LUMO-HOMO         0.627080 =      17.0637eV

 Orbitals saved in record  2100.2


 **********************************************************************************************************************************
 DATASETS  * FILE   NREC   LENGTH (MB)   RECORD NAMES
              1      19       87.69       500      610      700      900      950      970     1000      129      960     1100   
                                          VAR    BASINP    GEOM    SYMINP    ZMAT    AOBASIS   BASIS     P2S    ABASIS      S 
                                         1400     1410     1200     1210     1080     1600     1650     1300     1700   
                                           T        V       H0       H01     AOSYM     SMH    MOLCAS    ERIS     OPER   

              2       4        0.60       700     1000      520     2100   
                                         GEOM     BASIS   MCVARS     RHF  

 PROGRAMS   *        TOTAL    HF-SCF       INT
 CPU TIMES  *         5.09      0.57      4.39
 REAL TIME  *         7.97 SEC
 DISK USED  *       265.20 MB
 **********************************************************************************************************************************


 PROGRAM * PAPT (Closed-shell)     Authors: C. Hampel, H.-J. Werner, 1991, P.J. Knowles, 2021


 Convergence thresholds:  THRVAR = 1.00D-08  THRDEN = 1.00D-06

 Number of core orbitals:           2 (   1   0   1   0 )
 Number of closed-shell orbitals:   7 (   3   1   2   1 )
 Number of external orbitals:     135 (  40  27  41  27 )

 Molecular orbitals read from record     2100.2  Type=RHF/CANONICAL  

 Number of N-1 electron functions:               7
 Number of N-2 electron functions:              28
 Number of singly external CSFs:               256
 Number of doubly external CSFs:            112921
 Total number of CSFs:                      113178

 Length of J-op  integral file:               0.00 MB
 Length of K-op  integral file:               0.44 MB

 Integral transformation finished. Total CPU:   0.14 sec, npass=  1  Memory used:   0.23 MW

 Reference energy:                    -79.25508763

                        CORR.ENERGY   TOTAL ENERGY   ENERGY CHANGE
 MP2:                   -0.37014372   -79.62523135    -0.37014372

 SCS-MP2 correlation energy:           -0.37975560   (PS=  1.200000  PT=  0.333333)
 SCS-MP2 total energy:                -79.63484323
 Iteration:   1     0.1727D+00
 Iteration:   2     0.2146D+00
 Iteration:   3     0.3530D-01
 Iteration:   4     0.3074D-01
 Iteration:   5     0.2019D-01
 Iteration:   6     0.5287D-02
 Iteration:   7     0.4230D-01
 Iteration:   8     0.8555D-03
 Iteration:   9     0.7962D-03
 Iteration:  10     0.6311D-03
 Iteration:  11     0.1006D-03
 Iteration:  12     0.2162D-04
 PAPT operator written to  7000.1
 PAPT orbitals and eigenvalues written to  7000.2

 MP3(D):                -0.39905805   -79.65414568    -0.02891433



 RESULTS
 =======

  Reference energy                    -79.255087629309
  MP3 singlet pair energy              -0.289131890671
  MP3 triplet pair energy              -0.109926156906
  MP3 correlation energy               -0.399058047577

 !MP3 total energy                    -79.654145676886

 Timing summary (sec):

 STEP                 CPU(USER)    SYS     CPU(TOT)    WALL
 Transformation          0.15      0.02      0.17      0.34
 CCSD iterations         5.74      0.04      5.78      0.51

 Program statistics:

 Available memory in ccsd:               805306168
 Min. memory needed in ccsd:                366179
 Max. memory used in ccsd:                  458414
 Max. memory used in cckext:                461081 ( 1 integral passes)



 **********************************************************************************************************************************
 DATASETS  * FILE   NREC   LENGTH (MB)   RECORD NAMES
              1      21       89.49       500      610      700      900      950      970     1000      129      960     1100   
                                          VAR    BASINP    GEOM    SYMINP    ZMAT    AOBASIS   BASIS     P2S    ABASIS      S 
                                         1400     1410     1200     1210     1080     1600     1650     1300     1700     1380   
                                           T        V       H0       H01     AOSYM     SMH    MOLCAS    ERIS     OPER     JKOP   
                                         7000   
                                        PAPT AO    

              2       5        0.82       700     1000      520     2100     7000   
                                         GEOM     BASIS   MCVARS     RHF     PAPT   

 PROGRAMS   *        TOTAL      PAPT    HF-SCF       INT
 CPU TIMES  *         5.70      0.61      0.57      4.39
 REAL TIME  *         8.85 SEC
 DISK USED  *       265.20 MB
 **********************************************************************************************************************************


 PROGRAM * MP3 (Closed-shell)     Authors: C. Hampel, H.-J. Werner, 1991, M. Deegan, P.J. Knowles, 1992


 Convergence thresholds:  THRVAR = 1.00D-08  THRDEN = 1.00D-06

 Number of core orbitals:           2 (   1   0   1   0 )
 Number of closed-shell orbitals:   7 (   3   1   2   1 )
 Number of external orbitals:     135 (  40  27  41  27 )

 Molecular orbitals read from record     7000.2  Type=PAPT/CANONICAL (state 1.1)

 Number of N-1 electron functions:               7
 Number of N-2 electron functions:              28
 Number of singly external CSFs:               256
 Number of doubly external CSFs:            112921
 Total number of CSFs:                      113178

 Length of J-op  integral file:               0.00 MB
 Length of K-op  integral file:               0.44 MB

 Integral transformation finished. Total CPU:   0.15 sec, npass=  1  Memory used:   0.23 MW
 Orbital energies read from record       7000.2  Type=PAPT/CANONICAL (state 1.1)

 Reference energy:                    -79.25508763

                        CORR.ENERGY   TOTAL ENERGY   ENERGY CHANGE
 MP2:                   -0.40483061   -79.65991824    -0.40483061

 SCS-MP2 correlation energy:           -0.41686661   (PS=  1.200000  PT=  0.333333)
 SCS-MP2 total energy:                -79.67195424

 MP3(D):                -0.40502037   -79.66010800    -0.00018976



 RESULTS
 =======

  Reference energy                    -79.255087629309
  MP3 singlet pair energy              -0.296005202547
  MP3 triplet pair energy              -0.109015169947
  MP3 correlation energy               -0.405020372495

 !MP3 total energy                    -79.660108001803

 Timing summary (sec):

 STEP                 CPU(USER)    SYS     CPU(TOT)    WALL
 Transformation          0.21      0.03      0.24      0.25
 CCSD iterations         6.18      0.03      6.21      0.29

 Program statistics:

 Available memory in ccsd:               805306168
 Min. memory needed in ccsd:                366179
 Max. memory used in ccsd:                  458414
 Max. memory used in cckext:                461081 ( 1 integral passes)



 **********************************************************************************************************************************
 DATASETS  * FILE   NREC   LENGTH (MB)   RECORD NAMES
              1      21       89.49       500      610      700      900      950      970     1000      129      960     1100   
                                          VAR    BASINP    GEOM    SYMINP    ZMAT    AOBASIS   BASIS     P2S    ABASIS      S 
                                         1400     1410     1200     1210     1080     1600     1650     1300     1700     1380   
                                           T        V       H0       H01     AOSYM     SMH    MOLCAS    ERIS     OPER     JKOP   
                                         7000   
                                        PAPT AO    

              2       5        0.82       700     1000      520     2100     7000   
                                         GEOM     BASIS   MCVARS     RHF     PAPT   

 PROGRAMS   *        TOTAL       MP3      PAPT    HF-SCF       INT
 CPU TIMES  *         6.19      0.49      0.61      0.57      4.39
 REAL TIME  *         9.44 SEC
 DISK USED  *       265.20 MB
 **********************************************************************************************************************************

 Dump information in style XML to xml output                                                                      

 Orbitals will not be exported.

 **********************************************************************************************************************************

 MP3/cc-pVTZ energy=    -79.660108001803

             MP3            PAPT          HF-SCF
    -79.66010800    -79.65414568    -79.25508763
 **********************************************************************************************************************************
 Molpro calculation terminated
