
 Working directory              : /home/jovyan/scratch/molpro.SZverrhRha/
 Global scratch directory       : /home/jovyan/scratch/molpro.SZverrhRha/
 Wavefunction directory         : /home/jovyan/wfu/
 Main file repository           : /home/jovyan/scratch/molpro.SZverrhRha/

 id        : cardiff

 Nodes                nprocs
 jupyter-c-2efrancisan    1
 GA implementation: MPI file
 GA implementation (serial work in mppx): MPI file

 Using customized tuning parameters: mindgm=1; mindgv=20; mindgc=4; mindgr=1; noblas=0; minvec=7
 default implementation of scratch files=df  


 Variables initialized (1031), CPU time= 0.00 sec
 
 
 
 geometry={
 6
  3HF (cyc) (Full point group C3h)
  H 0.000000 1.164150 0.000000
  H 1.008183 -0.582075 0.000000
  H -1.008183 -0.582075 0.000000
  F -0.527520 -1.395778 0.000000
  F -0.945019 1.154735 0.000000
  F 1.472540 0.241043 0.000000
 }
 basis=cc-pVDZ
 angstrom
 
 
 hf; ccsd
 
 
 
 {put,xml;noorbitals,nobasis}
 Commands initialized (841), CPU time= 0.00 sec, 704 directives.
 Default parameters read. Elapsed time= 0.08 sec

 Checking input...
 Passed
1


                                         ***  PROGRAM SYSTEM MOLPRO  ***
                                       Copyright, TTI GmbH Stuttgart, 2015
                                    Version 2023.1 linked Mon Jun  5 13:27:10 2023


 **********************************************************************************************************************************
 LABEL *                                                                                                                                                                 
  (16 PROC) 64 bit serial version                                                        DATE: 03-Aug-23          TIME: 13:46:04  
 **********************************************************************************************************************************

 SHA1:             9738a14712571edd23541b6d7c4f3a3d766f8287
 **********************************************************************************************************************************

 Memory per process:       805 MW
 Total memory per node:   1074 MW
 Total GA space:           268 MW

 GA preallocation disabled
 GA check enabled

 Geometry recognized as XYZ


 Variable memory set to 805.3 MW

 SETTING BASIS          =    CC-PVDZ


 Recomputing integrals since basis changed


 Using spherical harmonics

 Library entry H      S cc-pVDZ              selected for orbital group  1
 Library entry H      P cc-pVDZ              selected for orbital group  1
 Library entry F      S cc-pVDZ              selected for orbital group  2
 Library entry F      P cc-pVDZ              selected for orbital group  2
 Library entry F      D cc-pVDZ              selected for orbital group  2


 PROGRAM * SEWARD (Integral evaluation for generally contracted gaussian basis sets)     Author: Roland Lindh, 1990

 Geometry written to block  1 of record 700


 Point group  Cs  



 ATOMIC COORDINATES

 NR  ATOM    CHARGE       X              Y              Z

   1  H       1.00    0.000000000    2.199924668    0.000000000
   2  H       1.00    1.905189754   -1.099962334    0.000000000
   3  H       1.00   -1.905189754   -1.099962334    0.000000000
   4  F       9.00   -0.996868325   -2.637638151    0.000000000
   5  F       9.00   -1.785827093    2.182132897    0.000000000
   6  F       9.00    2.782697308    0.455505254    0.000000000

 Bond lengths in Bohr (Angstrom)

 1-5  1.785915718  2-6  1.785916831  3-4  1.785915657
     ( 0.945065899)     ( 0.945066487)     ( 0.945065866)

 NUCLEAR CHARGE:                   30
 NUMBER OF PRIMITIVE AOS:         102
 NUMBER OF SYMMETRY AOS:           99
 NUMBER OF CONTRACTIONS:           57   (   42A'  +   15A"  )
 NUMBER OF INNER CORE ORBITALS:     0   (    0A'  +    0A"  )
 NUMBER OF OUTER CORE ORBITALS:     3   (    3A'  +    0A"  )
 NUMBER OF VALENCE ORBITALS:       15   (   12A'  +    3A"  )


 NUCLEAR REPULSION ENERGY   79.34823460

 Eigenvalues of metric

         1 0.216E-01 0.233E-01 0.233E-01 0.493E-01 0.493E-01 0.506E-01 0.142E+00 0.142E+00
         2 0.191E+00 0.193E+00 0.193E+00 0.625E+00 0.660E+00 0.660E+00 0.100E+01 0.100E+01


 Contracted 2-electron integrals neglected if value below      1.0D-11
 AO integral compression algorithm  1   Integral accuracy      1.0D-11

     3.670 MB (compressed) written to integral file ( 53.5%)


 NUMBER OF SORTED TWO-ELECTRON INTEGRALS:     740496.     BUFFER LENGTH:  32768
 NUMBER OF SEGMENTS:   1  SEGMENT LENGTH:     740496      RECORD LENGTH: 524288

 Memory used in sort:       1.30 MW

 SORT1 READ      884076. AND WROTE      715266. INTEGRALS IN      3 RECORDS. CPU TIME:     0.02 SEC, REAL TIME:     0.03 SEC
 SORT2 READ      715266. AND WROTE      740496. INTEGRALS IN     14 RECORDS. CPU TIME:     0.03 SEC, REAL TIME:     0.04 SEC

 FILE SIZES:   FILE 1:    33.8 MBYTE,  FILE 4:    12.6 MBYTE,   TOTAL:     46.5 MBYTE

 OPERATOR DM      FOR CENTER  0  COORDINATES:    0.000000    0.000000    0.000000


 **********************************************************************************************************************************
 DATASETS  * FILE   NREC   LENGTH (MB)   RECORD NAMES
              1      19       31.55       500      610      700      900      950      970     1000      129      960     1100   
                                          VAR    BASINP    GEOM    SYMINP    ZMAT    AOBASIS   BASIS     P2S    ABASIS      S 
                                         1400     1410     1200     1210     1080     1600     1650     1300     1700   
                                           T        V       H0       H01     AOSYM     SMH    MOLCAS    ERIS     OPER   

 PROGRAMS   *        TOTAL       INT
 CPU TIMES  *         0.72      0.59
 REAL TIME  *         1.95 SEC
 DISK USED  *        44.74 MB
 **********************************************************************************************************************************


 Program * Restricted Hartree-Fock

 Orbital guess generated from atomic densities. Full valence occupancy:   15   3

 Initial occupancy:  12   3

 NELEC=   30   SYM=1   MS2= 0   THRE=1.0D-08   THRD=3.2D-06   THRG=3.2D-06  HFMA2=F  DIIS_START=2   DIIS_MAX=10   DIIS_INCORE=F

 Level shifts:    0.00 (CLOSED)    0.00 (OPEN)    0.30 (GAP_MIN)

 ITER           ETOT              DE          GRAD        DDIFF     DIIS  NEXP   TIME(IT)  TIME(TOT)  DIAG
   1     -300.02690938    -300.02690938     0.00D+00     0.23D+00     0     0       0.01      0.02    start
   2     -300.07456194      -0.04765256     0.14D-01     0.31D-01     1     0       0.00      0.02    diag
   3     -300.08451254      -0.00995060     0.66D-02     0.85D-02     2     0       0.01      0.03    diag
   4     -300.08491564      -0.00040310     0.95D-03     0.20D-02     3     0       0.01      0.04    diag
   5     -300.08496499      -0.00004935     0.26D-03     0.69D-03     4     0       0.01      0.05    diag
   6     -300.08496887      -0.00000388     0.62D-04     0.17D-03     5     0       0.00      0.05    diag
   7     -300.08496893      -0.00000006     0.80D-05     0.22D-04     6     0       0.01      0.06    diag
   8     -300.08496893      -0.00000000     0.87D-06     0.20D-05     7     0       0.01      0.07    fixocc
   9     -300.08496893      -0.00000000     0.17D-06     0.28D-06     0     0       0.00      0.07    diag

 Final occupancy:  12   3

 !RHF STATE 1.1 Energy               -300.084968927263
  RHF One-electron energy            -578.618735377636
  RHF Two-electron energy             199.185531852098
  RHF Kinetic energy                  299.961728039202
  RHF Nuclear energy                   79.348234598275
  RHF Virial quotient                  -1.000410855374

 !RHF STATE 1.1 Dipole moment          -0.00000137    -0.00000022     0.00000000
 Dipole moment /Debye                  -0.00000347    -0.00000057     0.00000000

 Orbital energies:

           1.1          2.1          3.1          4.1          5.1          6.1          7.1          8.1          9.1         10.1
    -26.314088   -26.314088   -26.314083    -1.631295    -1.607646    -1.607646    -0.791504    -0.791504    -0.785557    -0.670973

          11.1         12.1         13.1         14.1
     -0.650476    -0.650476     0.203098     0.281802

           1.2          2.2          3.2          4.2          5.2
     -0.673848    -0.660326    -0.660326     1.277480     1.381035


 HOMO     12.1    -0.650476 =     -17.7003eV
 LUMO     13.1     0.203098 =       5.5266eV
 LUMO-HOMO         0.853573 =      23.2269eV

 Orbitals saved in record  2100.2


 **********************************************************************************************************************************
 DATASETS  * FILE   NREC   LENGTH (MB)   RECORD NAMES
              1      19       31.55       500      610      700      900      950      970     1000      129      960     1100   
                                          VAR    BASINP    GEOM    SYMINP    ZMAT    AOBASIS   BASIS     P2S    ABASIS      S 
                                         1400     1410     1200     1210     1080     1600     1650     1300     1700   
                                           T        V       H0       H01     AOSYM     SMH    MOLCAS    ERIS     OPER   

              2       4        0.49       700     1000      520     2100   
                                         GEOM     BASIS   MCVARS     RHF  

 PROGRAMS   *        TOTAL    HF-SCF       INT
 CPU TIMES  *         0.80      0.08      0.59
 REAL TIME  *         2.04 SEC
 DISK USED  *        44.74 MB
 **********************************************************************************************************************************


 PROGRAM * CCSD (Closed-shell coupled cluster)     Authors: C. Hampel, H.-J. Werner, 1991, M. Deegan, P.J. Knowles, 1992


 Convergence thresholds:  THRVAR = 1.00D-08  THRDEN = 1.00D-06

 Number of core orbitals:           3 (   3   0 )
 Number of closed-shell orbitals:  12 (   9   3 )
 Number of external orbitals:      42 (  30  12 )

 Molecular orbitals read from record     2100.2  Type=RHF/CANONICAL  

 Number of N-1 electron functions:              12
 Number of N-2 electron functions:              78
 Number of singly external CSFs:               306
 Number of doubly external CSFs:             66672
 Total number of CSFs:                       66979

 Length of J-op  integral file:               0.00 MB
 Length of K-op  integral file:               0.20 MB
 Length of 3-ext integral record:             0.00 MB

 Integral transformation finished. Total CPU:   0.04 sec, npass=  1  Memory used:   0.61 MW

 Reference energy:                   -300.08496893

 MP2 singlet pair energy:              -0.36838694
 MP2 triplet pair energy:              -0.24817964
 MP2 correlation energy:               -0.61656658
 MP2 total energy:                   -300.70153550

 SCS-MP2 correlation energy:           -0.59648722   (PS=  1.200000  PT=  0.333333)
 SCS-MP2 total energy:               -300.68145614

 ITER.      SQ.NORM     CORR.ENERGY   TOTAL ENERGY   ENERGY CHANGE        DEN1      VAR(S)    VAR(P)  DIIS     TIME  TIME/IT
   1      1.12404362    -0.62802896  -300.71299788    -0.01146238    -0.00205098  0.17D-02  0.14D-02  1  1     1.21     0.12
   2      1.13027425    -0.62930812  -300.71427705    -0.00127916    -0.00888507  0.17D-04  0.19D-03  2  2     1.34     0.13
   3      1.13227103    -0.62954907  -300.71451800    -0.00024095    -0.00158155  0.18D-04  0.56D-05  3  3     1.46     0.13
   4      1.13281640    -0.62951491  -300.71448384     0.00003416    -0.00034637  0.89D-06  0.52D-06  4  4     1.58     0.13
   5      1.13294921    -0.62949716  -300.71446609     0.00001775    -0.00006044  0.99D-07  0.36D-07  5  5     1.71     0.13
   6      1.13297702    -0.62949583  -300.71446476     0.00000133    -0.00000470  0.12D-07  0.34D-08  6  6     1.84     0.14
   7      1.13298289    -0.62949542  -300.71446435     0.00000041     0.00000074  0.56D-09  0.29D-09  6  1     1.96     0.14
   8      1.13298439    -0.62949514  -300.71446406     0.00000029    -0.00000033  0.81D-10  0.26D-10  6  2     2.09     0.14

 Norm of t1 vector:      0.05585014      S-energy:    -0.00000004      T1 diagnostic:  0.00806127
                                                                       D1 diagnostic:  0.02036986
                                                                       D2 diagnostic:  0.11317202 (internal)


 RESULTS
 =======

  Reference energy                   -300.084968927263
  CCSD singlet pair energy             -0.407851835800
  CCSD triplet pair energy             -0.221643262405
  CCSD correlation energy              -0.629495136898

 !CCSD total energy                  -300.714464064162

 Timing summary (sec):

 STEP                 CPU(USER)    SYS     CPU(TOT)    WALL
 Transformation          0.05      0.01      0.06      0.22
 CCSD iterations         2.06      0.09      2.15      1.13

 Program statistics:

 Available memory in ccsd:               805305780
 Min. memory needed in ccsd:                216511
 Max. memory used in ccsd:                  267820
 Max. memory used in cckext:                345047 ( 8 integral passes)



 **********************************************************************************************************************************
 DATASETS  * FILE   NREC   LENGTH (MB)   RECORD NAMES
              1      20       34.96       500      610      700      900      950      970     1000      129      960     1100   
                                          VAR    BASINP    GEOM    SYMINP    ZMAT    AOBASIS   BASIS     P2S    ABASIS      S 
                                         1400     1410     1200     1210     1080     1600     1650     1300     1700     1380   
                                           T        V       H0       H01     AOSYM     SMH    MOLCAS    ERIS     OPER     JKOP   

              2       4        0.49       700     1000      520     2100   
                                         GEOM     BASIS   MCVARS     RHF  

 PROGRAMS   *        TOTAL      CCSD    HF-SCF       INT
 CPU TIMES  *         1.90      1.10      0.08      0.59
 REAL TIME  *         3.43 SEC
 DISK USED  *        47.44 MB
 **********************************************************************************************************************************

 Dump information in style XML to xml output                                                                      

 Orbitals will not be exported.

 **********************************************************************************************************************************

 CCSD/cc-pVDZ energy=   -300.714464064162

            CCSD          HF-SCF
   -300.71446406   -300.08496893
 **********************************************************************************************************************************
 Molpro calculation terminated
