
 Working directory              : /home/jovyan/scratch/molpro.Mifs4DadyS/
 Global scratch directory       : /home/jovyan/scratch/molpro.Mifs4DadyS/
 Wavefunction directory         : /home/jovyan/wfu/
 Main file repository           : /home/jovyan/scratch/molpro.Mifs4DadyS/

 id        : cardiff

 Nodes                nprocs
 jupyter-c-2efrancisan    1
 GA implementation: MPI file
 GA implementation (serial work in mppx): MPI file

 Using customized tuning parameters: mindgm=1; mindgv=20; mindgc=4; mindgr=1; noblas=0; minvec=7
 default implementation of scratch files=df  


 Variables initialized (1031), CPU time= 0.00 sec
 
 
 
 geometry={
           15
     C         -3.68308053      0.94452211     -0.01656012
     H         -3.68590013     -0.15545023      0.01932632
     H         -3.15545960      1.24410275     -0.93472391
     H         -4.72649383      1.27817511     -0.10830711
     C         -3.01404275      1.53769362      1.22534673
     H         -3.04848053      2.63830850      1.18144679
     H         -3.58173640      1.25027510      2.12610967
     C         -1.54958284      1.09017006      1.38850510
     H         -1.52589130     -0.01495244      1.41907116
     H         -0.96721377      1.39104970      0.50204330
     C         -0.89999612      1.63188771      2.62799409
     H         -1.38186039      1.36273802      3.57573515
     C          0.18641143      2.40913614      2.65699083
     H          0.60540367      2.77523978      3.59524962
     H          0.70012704      2.70592330      1.73893155
 }
 basis=cc-pVDZ
 angstrom
 
 
 hf; papt;mp4
 
 
 
 {put,xml;noorbitals,nobasis}
 Commands initialized (841), CPU time= 0.02 sec, 704 directives.
 Default parameters read. Elapsed time= 0.08 sec

 Checking input...
 Passed
1


                                         ***  PROGRAM SYSTEM MOLPRO  ***
                                       Copyright, TTI GmbH Stuttgart, 2015
                                    Version 2023.1 linked Mon Jun  5 13:27:10 2023


 **********************************************************************************************************************************
 LABEL *                                                                                                                                                                 
  (16 PROC) 64 bit serial version                                                        DATE: 03-Aug-23          TIME: 16:59:14  
 **********************************************************************************************************************************

 SHA1:             9738a14712571edd23541b6d7c4f3a3d766f8287
 **********************************************************************************************************************************

 Memory per process:       805 MW
 Total memory per node:   1074 MW
 Total GA space:           268 MW

 GA preallocation disabled
 GA check enabled

 Geometry recognized as XYZ


 Variable memory set to 805.3 MW

 SETTING BASIS          =    CC-PVDZ


 Recomputing integrals since basis changed


 Using spherical harmonics

 Library entry C      S cc-pVDZ              selected for orbital group  1
 Library entry C      P cc-pVDZ              selected for orbital group  1
 Library entry C      D cc-pVDZ              selected for orbital group  1
 Library entry H      S cc-pVDZ              selected for orbital group  2
 Library entry H      P cc-pVDZ              selected for orbital group  2


 PROGRAM * SEWARD (Integral evaluation for generally contracted gaussian basis sets)     Author: Roland Lindh, 1990

 Geometry written to block  1 of record 700


 Point group  C1  



 ATOMIC COORDINATES

 NR  ATOM    CHARGE       X              Y              Z

   1  C       6.00   -6.960013497    1.784888107   -0.031294091
   2  H       1.00   -6.965341768   -0.293758361    0.036521452
   3  H       1.00   -5.962954441    2.351013468   -1.766372192
   4  H       1.00   -8.931778868    2.415400897   -0.204670775
   5  C       6.00   -5.695715325    2.905819805    2.315569727
   6  H       1.00   -5.760793298    4.985680497    2.232610864
   7  H       1.00   -6.768500847    2.362677519    4.017764987
   8  C       6.00   -2.928287175    2.060122843    2.623894362
   9  H       1.00   -2.883516653   -0.028256016    2.681655844
  10  H       1.00   -1.827769129    2.628702959    0.948724340
  11  C       6.00   -1.700746180    3.083820838    4.966189087
  12  H       1.00   -2.611337680    2.575201637    6.757160128
  13  C       6.00    0.352266549    4.552607502    5.020984984
  14  H       1.00    1.144047131    5.244443114    6.794037131
  15  H       1.00    1.323048358    5.113453951    3.286104379

 Bond lengths in Bohr (Angstrom)

 1-2  2.079759235  1-3  2.079692453  1-4  2.077369619  1-5  2.891834629  5-6  2.082531588
     ( 1.100561191)     ( 1.100525852)     ( 1.099296661)     ( 1.530292984)     ( 1.102028257)

  5- 7  2.084068382   5- 8  2.910141921   8- 9  2.089657160   8-10  2.083414966   8-11  2.835693753
       ( 1.102841494)       ( 1.539980785)       ( 1.105798948)       ( 1.102495721)       ( 1.500584511)

 11-12  2.072546173  11-13  2.524915468  13-14  2.061375007  13-15  2.065617771
       ( 1.096744203)       ( 1.336127725)       ( 1.090832677)       ( 1.093077851)

 Bond angles

  1-5-6  109.94584458   1-5-7  109.68056227   1-5-8  112.89816040   2-1-3  107.48780124

  2-1-4  107.67649762   2-1-5  111.22736239   3-1-4  107.62601359   3-1-5  111.22011373

  4- 1- 5  111.41090819   5- 8- 9  108.28405905   5- 8-10  109.74459489   5- 8-11  113.22013171

  6- 5- 7  106.06529287   6- 5- 8  108.91518359   7- 5- 8  109.10139092   8-11-12  115.78507688

  8-11-13  125.44430423   9- 8-10  106.47810176   9- 8-11  109.18849067  10- 8-11  109.69199066

 11-13-14  121.75017514  11-13-15  121.45659305  12-11-13  118.76692411  14-13-15  116.79294029

 NUCLEAR CHARGE:                   40
 NUMBER OF PRIMITIVE AOS:         205
 NUMBER OF SYMMETRY AOS:          200
 NUMBER OF CONTRACTIONS:          120   (  120A   )
 NUMBER OF INNER CORE ORBITALS:     0   (    0A   )
 NUMBER OF OUTER CORE ORBITALS:     5   (    5A   )
 NUMBER OF VALENCE ORBITALS:       30   (   30A   )


 NUCLEAR REPULSION ENERGY  169.24471204


 Eigenvalues of metric

         1 0.205E-02 0.255E-02 0.490E-02 0.733E-02 0.139E-01 0.162E-01 0.169E-01 0.212E-01


 Contracted 2-electron integrals neglected if value below      1.0D-11
 AO integral compression algorithm  1   Integral accuracy      1.0D-11

     108.265 MB (compressed) written to integral file ( 49.5%)


 NUMBER OF SORTED TWO-ELECTRON INTEGRALS:   26357430.     BUFFER LENGTH:  32768
 NUMBER OF SEGMENTS:   2  SEGMENT LENGTH:   15997996      RECORD LENGTH: 524288

 Memory used in sort:      16.56 MW

 SORT1 READ    27348243. AND WROTE    24385806. INTEGRALS IN     71 RECORDS. CPU TIME:     0.35 SEC, REAL TIME:     0.61 SEC
 SORT2 READ    24385806. AND WROTE    26357430. INTEGRALS IN    413 RECORDS. CPU TIME:     0.52 SEC, REAL TIME:     1.88 SEC

 FILE SIZES:   FILE 1:   139.0 MBYTE,  FILE 4:   297.9 MBYTE,   TOTAL:    436.9 MBYTE

 OPERATOR DM      FOR CENTER  0  COORDINATES:    0.000000    0.000000    0.000000


 **********************************************************************************************************************************
 DATASETS  * FILE   NREC   LENGTH (MB)   RECORD NAMES
              1      19      121.27       500      610      700      900      950      970     1000      129      960     1100   
                                          VAR    BASINP    GEOM    SYMINP    ZMAT    AOBASIS   BASIS     P2S    ABASIS      S 
                                         1400     1410     1200     1210     1080     1600     1650     1300     1700   
                                           T        V       H0       H01     AOSYM     SMH    MOLCAS    ERIS     OPER   

 PROGRAMS   *        TOTAL       INT
 CPU TIMES  *         4.67      4.53
 REAL TIME  *         7.67 SEC
 DISK USED  *       417.24 MB
 **********************************************************************************************************************************


 Program * Restricted Hartree-Fock

 Orbital guess generated from atomic densities. Full valence occupancy:   35

 Initial occupancy:  20

 NELEC=   40   SYM=1   MS2= 0   THRE=1.0D-08   THRD=3.2D-06   THRG=3.2D-06  HFMA2=F  DIIS_START=2   DIIS_MAX=10   DIIS_INCORE=F

 Level shifts:    0.00 (CLOSED)    0.00 (OPEN)    0.30 (GAP_MIN)

 ITER           ETOT              DE          GRAD        DDIFF     DIIS  NEXP   TIME(IT)  TIME(TOT)  DIAG
   1     -195.09341848    -195.09341848     0.00D+00     0.93D-01     0     0       0.28      0.56    start
   2     -195.14983095      -0.05641247     0.42D-02     0.89D-02     1     0       0.28      0.84    diag
   3     -195.15557938      -0.00574843     0.15D-02     0.32D-02     2     0       0.27      1.11    diag
   4     -195.15639506      -0.00081568     0.47D-03     0.11D-02     3     0       0.29      1.40    diag
   5     -195.15640946      -0.00001441     0.64D-04     0.18D-03     4     0       0.28      1.68    diag
   6     -195.15641111      -0.00000164     0.24D-04     0.49D-04     5     0       0.28      1.96    diag
   7     -195.15641120      -0.00000009     0.38D-05     0.12D-04     6     0       0.28      2.24    diag
   8     -195.15641121      -0.00000001     0.19D-05     0.40D-05     7     0       0.28      2.52    fixocc
   9     -195.15641122      -0.00000000     0.63D-06     0.21D-05     8     0       0.28      2.80    diag
  10     -195.15641122      -0.00000000     0.26D-06     0.56D-06     0     0       0.27      3.07    diag/orth

 Final occupancy:  20

 !RHF STATE 1.1 Energy               -195.156411218681
  RHF One-electron energy            -596.912876485161
  RHF Two-electron energy             232.511753226606
  RHF Kinetic energy                  194.773582498421
  RHF Nuclear energy                  169.244712039874
  RHF Virial quotient                  -1.001965506386

 !RHF STATE 1.1 Dipole moment          -0.12534890    -0.05676000    -0.04877636
 Dipole moment /Debye                  -0.31860513    -0.14426952    -0.12397715

 Orbital energies:

           1.1          2.1          3.1          4.1          5.1          6.1          7.1          8.1          9.1         10.1
    -11.235993   -11.230306   -11.228366   -11.225858   -11.222998    -1.084763    -1.019307    -0.920252    -0.809041    -0.751550

          11.1         12.1         13.1         14.1         15.1         16.1         17.1         18.1         19.1         20.1
     -0.644339    -0.611086    -0.586377    -0.562689    -0.534228    -0.506758    -0.479961    -0.468769    -0.467111    -0.354926

          21.1         22.1
      0.173332     0.187722


 HOMO     20.1    -0.354926 =      -9.6580eV
 LUMO     21.1     0.173332 =       4.7166eV
 LUMO-HOMO         0.528258 =      14.3746eV

 Orbitals saved in record  2100.2


 **********************************************************************************************************************************
 DATASETS  * FILE   NREC   LENGTH (MB)   RECORD NAMES
              1      19      121.27       500      610      700      900      950      970     1000      129      960     1100   
                                          VAR    BASINP    GEOM    SYMINP    ZMAT    AOBASIS   BASIS     P2S    ABASIS      S 
                                         1400     1410     1200     1210     1080     1600     1650     1300     1700   
                                           T        V       H0       H01     AOSYM     SMH    MOLCAS    ERIS     OPER   

              2       4        0.84       700     1000      520     2100   
                                         GEOM     BASIS   MCVARS     RHF  

 PROGRAMS   *        TOTAL    HF-SCF       INT
 CPU TIMES  *         7.75      3.07      4.53
 REAL TIME  *        10.99 SEC
 DISK USED  *       417.24 MB
 **********************************************************************************************************************************


 PROGRAM * PAPT (Closed-shell)     Authors: C. Hampel, H.-J. Werner, 1991, P.J. Knowles, 2021


 Convergence thresholds:  THRVAR = 1.00D-08  THRDEN = 1.00D-06

 Number of core orbitals:           5 (   5 )
 Number of closed-shell orbitals:  15 (  15 )
 Number of external orbitals:     100 ( 100 )

 Molecular orbitals read from record     2100.2  Type=RHF/CANONICAL  

 Number of N-1 electron functions:              15
 Number of N-2 electron functions:             120
 Number of singly external CSFs:              1500
 Number of doubly external CSFs:           1125750
 Total number of CSFs:                     1127251

 Length of J-op  integral file:               0.00 MB
 Length of K-op  integral file:               1.05 MB

 Integral transformation finished. Total CPU:   0.79 sec, npass=  1  Memory used:   3.16 MW

 Reference energy:                   -195.15641122

                        CORR.ENERGY   TOTAL ENERGY   ENERGY CHANGE
 MP2:                   -0.70526982  -195.86168104    -0.70526982

 SCS-MP2 correlation energy:           -0.70658412   (PS=  1.200000  PT=  0.333333)
 SCS-MP2 total energy:               -195.86299533
 Iteration:   1     0.2217D+00
 Iteration:   2     0.9117D+00
 Iteration:   3     0.8738D-01
 Iteration:   4     0.1632D+00
 Iteration:   5     0.4495D-01
 Iteration:   6     0.4503D-01
 Iteration:   7     0.4928D-01
 Iteration:   8     0.3037D-01
 Iteration:   9     0.6744D-01
 Iteration:  10     0.1377D-01
 Iteration:  11     0.4133D-01
 Iteration:  12     0.6873D-02
 Iteration:  13     0.4377D-02
 Iteration:  14     0.4497D-01
 Iteration:  15     0.1297D-02
 Iteration:  16     0.1302D-02
 Iteration:  17     0.8679D-03
 Iteration:  18     0.4339D-03
 Iteration:  19     0.1024D-02
 Iteration:  20     0.1371D-03
 Iteration:  21     0.4149D-03
 Iteration:  22     0.4818D-04
 PAPT operator written to  7000.1
 PAPT orbitals and eigenvalues written to  7000.2

 MP3(D):                -0.76400459  -195.92041581    -0.05873477



 RESULTS
 =======

  Reference energy                   -195.156411218681
  MP3 singlet pair energy              -0.530629508627
  MP3 triplet pair energy              -0.233375082318
  MP3 correlation energy               -0.764004590944

 !MP3 total energy                   -195.920415809626

 Timing summary (sec):

 STEP                 CPU(USER)    SYS     CPU(TOT)    WALL
 Transformation          0.87      0.13      1.00      1.15
 CCSD iterations        19.42      0.15     19.57     11.70

 Program statistics:

 Available memory in ccsd:               805305448
 Min. memory needed in ccsd:               2984299
 Max. memory used in ccsd:                 3969799
 Max. memory used in cckext:               3641626 ( 1 integral passes)



 **********************************************************************************************************************************
 DATASETS  * FILE   NREC   LENGTH (MB)   RECORD NAMES
              1      21      141.38       500      610      700      900      950      970     1000      129      960     1100   
                                          VAR    BASINP    GEOM    SYMINP    ZMAT    AOBASIS   BASIS     P2S    ABASIS      S 
                                         1400     1410     1200     1210     1080     1600     1650     1300     1700     1380   
                                           T        V       H0       H01     AOSYM     SMH    MOLCAS    ERIS     OPER     JKOP   
                                         7000   
                                        PAPT AO    

              2       5        1.27       700     1000      520     2100     7000   
                                         GEOM     BASIS   MCVARS     RHF     PAPT   

 PROGRAMS   *        TOTAL      PAPT    HF-SCF       INT
 CPU TIMES  *        20.02     12.27      3.07      4.53
 REAL TIME  *        23.90 SEC
 DISK USED  *       417.24 MB
 **********************************************************************************************************************************


 PROGRAM * MP4 (Closed-shell)     Authors: C. Hampel, H.-J. Werner, 1991, M. Deegan, P.J. Knowles, 1992


 Convergence thresholds:  THRVAR = 1.00D-08  THRDEN = 1.00D-06

 MP4(T)     terms to be evaluated (factor= 0.000)


 Number of core orbitals:           5 (   5 )
 Number of closed-shell orbitals:  15 (  15 )
 Number of external orbitals:     100 ( 100 )

 Molecular orbitals read from record     7000.2  Type=PAPT/CANONICAL (state 1.1)

 Number of N-1 electron functions:              15
 Number of N-2 electron functions:             120
 Number of singly external CSFs:              1500
 Number of doubly external CSFs:           1125750
 Total number of CSFs:                     1127251

 Length of J-op  integral file:               0.00 MB
 Length of K-op  integral file:               1.05 MB

 Memory could be reduced to 20.47 Mwords without degradation in triples

 Integral transformation finished. Total CPU:   1.87 sec, npass=  1  Memory used:  17.10 MW
 Orbital energies read from record       7000.2  Type=PAPT/CANONICAL (state 1.1)

 Reference energy:                   -195.15641122

                        CORR.ENERGY   TOTAL ENERGY   ENERGY CHANGE
 MP2:                   -0.77511508  -195.93152630    -0.77511508

 SCS-MP2 correlation energy:           -0.78176290   (PS=  1.200000  PT=  0.333333)
 SCS-MP2 total energy:               -195.93817412

 MP3(D):                -0.77563148  -195.93204270    -0.00051640
 MP4(DQ):               -0.76845299  -195.92486421     0.00717849
 MP4(SDQ):              -0.77318017  -195.92959139    -0.00472718

 Norm of t1 vector:      0.05674526      S-energy:    -0.00472718      T1 diagnostic:  0.00732578

 Largest off-diagonal element in interal  block of Fock matrix:  0.69D-01
 Largest off-diagonal element in external block of Fock matrix:  0.10D+00


 Total CPU time for triples:     66.21 sec


 RESULTS
 =======

  Reference energy                   -195.156411218681
  MP4(SDQ) singlet pair energy         -0.537043726922
  MP4(SDQ) triplet pair energy         -0.231409261752
  MP4(SDQ) correlation energy          -0.773180171153

  Triples contribution                 -0.029014234910
  Total correlation energy             -0.802194406062

  MP4(SDQ) total energy              -195.929591389834
 !MP4(SDTQ) total energy             -195.958605624743

 Timing summary (sec):

 STEP                 CPU(USER)    SYS     CPU(TOT)    WALL
 Transformation          2.22      0.27      2.49      2.91
 CCSD iterations        27.49      0.11     27.60      7.33
 Triples                66.21      2.16     68.37     68.88

 Program statistics:

 Available memory in ccsd:               805305448
 Min. memory needed in ccsd:               2984299
 Max. memory used in ccsd:                 3969799
 Max. memory used in cckext:               3641626 ( 1 integral passes)



 **********************************************************************************************************************************
 DATASETS  * FILE   NREC   LENGTH (MB)   RECORD NAMES
              1      22      199.17       500      610      700      900      950      970     1000      129      960     1100   
                                          VAR    BASINP    GEOM    SYMINP    ZMAT    AOBASIS   BASIS     P2S    ABASIS      S 
                                         1400     1410     1200     1210     1080     1600     1650     1300     1700     1380   
                                           T        V       H0       H01     AOSYM     SMH    MOLCAS    ERIS     OPER     JKOP   
                                         7000     1380(1)
                                        PAPT AO   JKOP   

              2       5        1.27       700     1000      520     2100     7000   
                                         GEOM     BASIS   MCVARS     RHF     PAPT   

 PROGRAMS   *        TOTAL       MP4      PAPT    HF-SCF       INT
 CPU TIMES  *        95.66     75.63     12.27      3.07      4.53
 REAL TIME  *       103.10 SEC
 DISK USED  *       417.24 MB
 **********************************************************************************************************************************

 Dump information in style XML to xml output                                                                      

 Orbitals will not be exported.

 **********************************************************************************************************************************

 MP4/cc-pVDZ energy=   -195.958605624743

             MP4            PAPT          HF-SCF
   -195.95860562   -195.92041581   -195.15641122
 **********************************************************************************************************************************
 Molpro calculation terminated
