
 Working directory              : /home/jovyan/scratch/molpro.cYx37OSoV8/
 Global scratch directory       : /home/jovyan/scratch/molpro.cYx37OSoV8/
 Wavefunction directory         : /home/jovyan/wfu/
 Main file repository           : /home/jovyan/scratch/molpro.cYx37OSoV8/

 id        : cardiff

 Nodes                nprocs
 jupyter-c-2efrancisan    1
 GA implementation: MPI file
 GA implementation (serial work in mppx): MPI file

 Using customized tuning parameters: mindgm=1; mindgv=20; mindgc=4; mindgr=1; noblas=0; minvec=7
 default implementation of scratch files=df  


 Variables initialized (1031), CPU time= 0.00 sec
 
 
 
 geometry={
            6
     F          0.00000000      0.00000000     -1.79137135
     C          0.00000000      0.00000000     -0.36561703
     H         -0.51179113      0.88644824     -0.01758668
     H         -0.51179113     -0.88644824     -0.01758668
     H          1.02358226      0.00000000     -0.01758668
     F          0.00000000      0.00000000      2.20974841
 }
 basis=cc-pVDZ
 angstrom
 charge=-1
 
 hf; ccsd(t)
 
 
 
 {put,xml;noorbitals,nobasis}
 Commands initialized (841), CPU time= 0.01 sec, 704 directives.
 Default parameters read. Elapsed time= 0.08 sec

 Checking input...
 Passed
1


                                         ***  PROGRAM SYSTEM MOLPRO  ***
                                       Copyright, TTI GmbH Stuttgart, 2015
                                    Version 2023.1 linked Mon Jun  5 13:27:10 2023


 **********************************************************************************************************************************
 LABEL *                                                                                                                                                                 
  (16 PROC) 64 bit serial version                                                        DATE: 02-Aug-23          TIME: 15:52:47  
 **********************************************************************************************************************************

 SHA1:             9738a14712571edd23541b6d7c4f3a3d766f8287
 **********************************************************************************************************************************

 Memory per process:       805 MW
 Total memory per node:   1074 MW
 Total GA space:           268 MW

 GA preallocation disabled
 GA check enabled

 Geometry recognized as XYZ


 Variable memory set to 805.3 MW

 SETTING BASIS          =    CC-PVDZ
 SETTING CHARGE         =        -1.00000000                                  


 Recomputing integrals since basis changed


 Using spherical harmonics

 Library entry F      S cc-pVDZ              selected for orbital group  1
 Library entry F      P cc-pVDZ              selected for orbital group  1
 Library entry F      D cc-pVDZ              selected for orbital group  1
 Library entry C      S cc-pVDZ              selected for orbital group  2
 Library entry C      P cc-pVDZ              selected for orbital group  2
 Library entry C      D cc-pVDZ              selected for orbital group  2
 Library entry H      S cc-pVDZ              selected for orbital group  3
 Library entry H      P cc-pVDZ              selected for orbital group  3


 PROGRAM * SEWARD (Integral evaluation for generally contracted gaussian basis sets)     Author: Roland Lindh, 1990

 Geometry written to block  1 of record 700


 Point group  Cs  



 ATOMIC COORDINATES

 NR  ATOM    CHARGE       X              Y              Z

   1  F       9.00    0.000000000    0.000000000   -3.385201239
   2  C       6.00    0.000000000    0.000000000   -0.690916053
   3  H       1.00   -0.967145069    1.675144397   -0.033234009
   4  H       1.00   -0.967145069   -1.675144397   -0.033234009
   5  H       1.00    1.934290137    0.000000000   -0.033234009
   6  F       9.00    0.000000000    0.000000000    4.175819299

 Bond lengths in Bohr (Angstrom)

 1-2  2.694285186  2-3  2.043042831  2-4  2.043042831  2-5  2.043042831
     ( 1.425754320)     ( 1.081131707)     ( 1.081131707)     ( 1.081131707)

 Bond angles

  1-2-3  108.77865447   1-2-4  108.77865447   1-2-5  108.77865447   3-2-4  110.15481872

  3-2-5  110.15481872   4-2-5  110.15481872

 NUCLEAR CHARGE:                   27
 NUMBER OF PRIMITIVE AOS:         102
 NUMBER OF SYMMETRY AOS:           99
 NUMBER OF CONTRACTIONS:           57   (   39A'  +   18A"  )
 NUMBER OF INNER CORE ORBITALS:     0   (    0A'  +    0A"  )
 NUMBER OF OUTER CORE ORBITALS:     3   (    3A'  +    0A"  )
 NUMBER OF VALENCE ORBITALS:       15   (   11A'  +    4A"  )


 NUCLEAR REPULSION ENERGY   64.36223019


 Eigenvalues of metric

         1 0.114E-01 0.226E-01 0.360E-01 0.406E-01 0.488E-01 0.492E-01 0.111E+00 0.117E+00
         2 0.360E-01 0.492E-01 0.126E+00 0.188E+00 0.204E+00 0.314E+00 0.510E+00 0.914E+00


 Contracted 2-electron integrals neglected if value below      1.0D-11
 AO integral compression algorithm  1   Integral accuracy      1.0D-11

     3.146 MB (compressed) written to integral file ( 43.1%)


 NUMBER OF SORTED TWO-ELECTRON INTEGRALS:     719436.     BUFFER LENGTH:  32768
 NUMBER OF SEGMENTS:   1  SEGMENT LENGTH:     719436      RECORD LENGTH: 524288

 Memory used in sort:       1.28 MW

 SORT1 READ      838681. AND WROTE      560525. INTEGRALS IN      2 RECORDS. CPU TIME:     0.02 SEC, REAL TIME:     0.16 SEC
 SORT2 READ      560525. AND WROTE      719436. INTEGRALS IN     12 RECORDS. CPU TIME:     0.04 SEC, REAL TIME:     0.04 SEC

 FILE SIZES:   FILE 1:    33.3 MBYTE,  FILE 4:     8.5 MBYTE,   TOTAL:     41.8 MBYTE

 OPERATOR DM      FOR CENTER  0  COORDINATES:    0.000000    0.000000    0.000000


 **********************************************************************************************************************************
 DATASETS  * FILE   NREC   LENGTH (MB)   RECORD NAMES
              1      19       31.04       500      610      700      900      950      970     1000      129      960     1100   
                                          VAR    BASINP    GEOM    SYMINP    ZMAT    AOBASIS   BASIS     P2S    ABASIS      S 
                                         1400     1410     1200     1210     1080     1600     1650     1300     1700   
                                           T        V       H0       H01     AOSYM     SMH    MOLCAS    ERIS     OPER   

 PROGRAMS   *        TOTAL       INT
 CPU TIMES  *         0.76      0.62
 REAL TIME  *         2.47 SEC
 DISK USED  *        40.24 MB
 **********************************************************************************************************************************


 Program * Restricted Hartree-Fock

 Orbital guess generated from atomic densities. Full valence occupancy:   14   4

 Initial occupancy:  11   3

 NELEC=   28   SYM=1   MS2= 0   THRE=1.0D-08   THRD=3.2D-06   THRG=3.2D-06  HFMA2=F  DIIS_START=2   DIIS_MAX=10   DIIS_INCORE=F

 Level shifts:    0.00 (CLOSED)    0.00 (OPEN)    0.30 (GAP_MIN)

 ITER           ETOT              DE          GRAD        DDIFF     DIIS  NEXP   TIME(IT)  TIME(TOT)  DIAG
   1     -238.35242545    -238.35242545     0.00D+00     0.23D+00     0     0       0.01      0.02    start
   2     -238.41847232      -0.06604687     0.19D-01     0.41D-01     1     0       0.01      0.03    diag
   3     -238.44643620      -0.02796388     0.11D-01     0.14D-01     2     0       0.01      0.04    diag
   4     -238.44679020      -0.00035400     0.77D-03     0.21D-02     3     0       0.01      0.05    diag
   5     -238.44680517      -0.00001497     0.14D-03     0.46D-03     4     0       0.00      0.05    diag
   6     -238.44680588      -0.00000071     0.36D-04     0.95D-04     5     0       0.01      0.06    diag
   7     -238.44680596      -0.00000008     0.13D-04     0.31D-04     6     0       0.01      0.07    diag
   8     -238.44680597      -0.00000001     0.41D-05     0.12D-04     7     0       0.01      0.08    fixocc
   9     -238.44680597      -0.00000000     0.10D-05     0.28D-05     8     0       0.00      0.08    diag
  10     -238.44680597      -0.00000000     0.21D-06     0.47D-06     0     0       0.01      0.09    diag/orth

 Final occupancy:  11   3

 !RHF STATE 1.1 Energy               -238.446805972442
  RHF One-electron energy            -468.202820718374
  RHF Two-electron energy             165.393784551880
  RHF Kinetic energy                  238.573294499664
  RHF Nuclear energy                   64.362230194053
  RHF Virial quotient                  -0.999469812715

 !RHF STATE 1.1 Dipole moment          -0.00000000     0.00000000    -2.60911434
 Dipole moment /Debye                  -0.00000000     0.00000000    -6.63170718

 Orbital energies:

           1.1          2.1          3.1          4.1          5.1          6.1          7.1          8.1          9.1         10.1
    -26.085497   -25.773635   -11.109258    -1.388384    -1.038314    -0.752751    -0.495396    -0.468052    -0.337548    -0.143039

          11.1         12.1         13.1
     -0.139775     0.381666     0.452809

           1.2          2.2          3.2          4.2          5.2
     -0.495396    -0.337548    -0.143039     0.452809     0.805940


 HOMO     11.1    -0.139775 =      -3.8035eV
 LUMO     12.1     0.381666 =      10.3857eV
 LUMO-HOMO         0.521442 =      14.1892eV

 Orbitals saved in record  2100.2


 **********************************************************************************************************************************
 DATASETS  * FILE   NREC   LENGTH (MB)   RECORD NAMES
              1      19       31.04       500      610      700      900      950      970     1000      129      960     1100   
                                          VAR    BASINP    GEOM    SYMINP    ZMAT    AOBASIS   BASIS     P2S    ABASIS      S 
                                         1400     1410     1200     1210     1080     1600     1650     1300     1700   
                                           T        V       H0       H01     AOSYM     SMH    MOLCAS    ERIS     OPER   

              2       4        0.49       700     1000      520     2100   
                                         GEOM     BASIS   MCVARS     RHF  

 PROGRAMS   *        TOTAL    HF-SCF       INT
 CPU TIMES  *         0.85      0.09      0.62
 REAL TIME  *         2.57 SEC
 DISK USED  *        40.24 MB
 **********************************************************************************************************************************


 PROGRAM * CCSD (Closed-shell coupled cluster)     Authors: C. Hampel, H.-J. Werner, 1991, M. Deegan, P.J. Knowles, 1992


 Convergence thresholds:  THRVAR = 1.00D-08  THRDEN = 1.00D-06

 CCSD(T)     terms to be evaluated (factor= 1.000)


 Number of core orbitals:           3 (   3   0 )
 Number of closed-shell orbitals:  11 (   8   3 )
 Number of external orbitals:      43 (  28  15 )

 Molecular orbitals read from record     2100.2  Type=RHF/CANONICAL  

 Number of N-1 electron functions:              11
 Number of N-2 electron functions:              66
 Number of singly external CSFs:               269
 Number of doubly external CSFs:             57225
 Total number of CSFs:                       57495

 Length of J-op  integral file:               0.00 MB
 Length of K-op  integral file:               0.19 MB
 Length of 3-ext integral record:             0.00 MB

 Memory could be reduced to 0.76 Mwords without degradation in triples

 Integral transformation finished. Total CPU:   0.03 sec, npass=  1  Memory used:   0.47 MW

 Reference energy:                   -238.44680597

 MP2 singlet pair energy:              -0.32729284
 MP2 triplet pair energy:              -0.20057976
 MP2 correlation energy:               -0.52787260
 MP2 total energy:                   -238.97467858

 SCS-MP2 correlation energy:           -0.51755660   (PS=  1.200000  PT=  0.333333)
 SCS-MP2 total energy:               -238.96436257

 ITER.      SQ.NORM     CORR.ENERGY   TOTAL ENERGY   ENERGY CHANGE        DEN1      VAR(S)    VAR(P)  DIIS     TIME  TIME/IT
   1      1.13134919    -0.55005908  -238.99686505    -0.02218648    -0.01079557  0.24D-02  0.20D-02  1  1     1.34     0.11
   2      1.14061780    -0.55175304  -238.99855901    -0.00169396    -0.01080952  0.35D-04  0.33D-03  2  2     1.43     0.11
   3      1.14391727    -0.55210043  -238.99890640    -0.00034739    -0.00187991  0.71D-04  0.17D-04  3  3     1.53     0.11
   4      1.14496594    -0.55207558  -238.99888155     0.00002485    -0.00045062  0.11D-04  0.30D-05  4  4     1.62     0.11
   5      1.14552753    -0.55204145  -238.99884742     0.00003413    -0.00017296  0.19D-05  0.50D-06  5  5     1.72     0.11
   6      1.14578257    -0.55203227  -238.99883825     0.00000917    -0.00003937  0.38D-06  0.61D-07  6  6     1.82     0.11
   7      1.14584987    -0.55203022  -238.99883619     0.00000205    -0.00000053  0.26D-07  0.17D-07  6  1     1.91     0.11
   8      1.14587762    -0.55202726  -238.99883323     0.00000296    -0.00000637  0.48D-08  0.21D-08  6  2     2.00     0.11
   9      1.14587953    -0.55202775  -238.99883373    -0.00000049     0.00000133  0.86D-09  0.29D-09  6  3     2.09     0.11
  10      1.14588360    -0.55202735  -238.99883332     0.00000040    -0.00000133  0.14D-09  0.53D-10  6  4     2.18     0.11

 Norm of t1 vector:      0.07284974      S-energy:     0.00000039      T1 diagnostic:  0.01098251
                                                                       D1 diagnostic:  0.03689165
                                                                       D2 diagnostic:  0.13109817 (internal)


 Total CPU time for triples:      0.50 sec


 RESULTS
 =======

  Reference energy                   -238.446805972442
  CCSD singlet pair energy             -0.371317811407
  CCSD triplet pair energy             -0.180709932417
  CCSD correlation energy              -0.552027351437

  Triples (T) contribution             -0.007727870355
  Total correlation energy             -0.559755221792

  CCSD total energy                  -238.998833323879
  CCSD[T] energy                     -239.007347028376
  CCSD-T energy                      -239.006299820988
 !CCSD(T) total energy               -239.006561194234

 Timing summary (sec):

 STEP                 CPU(USER)    SYS     CPU(TOT)    WALL
 Transformation          0.04      0.01      0.05      0.19
 CCSD iterations         2.16      0.11      2.27      1.11
 Triples                 0.50      0.03      0.53      0.54

 Program statistics:

 Available memory in ccsd:               805305873
 Min. memory needed in ccsd:                185282
 Max. memory used in ccsd:                  229117
 Max. memory used in cckext:                296147 (10 integral passes)



 **********************************************************************************************************************************
 DATASETS  * FILE   NREC   LENGTH (MB)   RECORD NAMES
              1      20       34.09       500      610      700      900      950      970     1000      129      960     1100   
                                          VAR    BASINP    GEOM    SYMINP    ZMAT    AOBASIS   BASIS     P2S    ABASIS      S 
                                         1400     1410     1200     1210     1080     1600     1650     1300     1700     1380   
                                           T        V       H0       H01     AOSYM     SMH    MOLCAS    ERIS     OPER     JKOP   

              2       4        0.49       700     1000      520     2100   
                                         GEOM     BASIS   MCVARS     RHF  

 PROGRAMS   *        TOTAL   CCSD(T)    HF-SCF       INT
 CPU TIMES  *         2.39      1.54      0.09      0.62
 REAL TIME  *         4.46 SEC
 DISK USED  *        44.90 MB
 **********************************************************************************************************************************

 Dump information in style XML to xml output                                                                      

 Orbitals will not be exported.

 **********************************************************************************************************************************

 CCSD(T)/cc-pVDZ energy=   -239.006561194234

         CCSD(T)          HF-SCF
   -239.00656119   -238.44680597
 **********************************************************************************************************************************
 Molpro calculation terminated
