
 Working directory              : /home/jovyan/scratch/molpro.flI2L7IzMu/
 Global scratch directory       : /home/jovyan/scratch/molpro.flI2L7IzMu/
 Wavefunction directory         : /home/jovyan/wfu/
 Main file repository           : /home/jovyan/scratch/molpro.flI2L7IzMu/

 id        : cardiff

 Nodes                nprocs
 jupyter-c-2efrancisan    1
 GA implementation: MPI file
 GA implementation (serial work in mppx): MPI file

 Using customized tuning parameters: mindgm=1; mindgv=20; mindgc=4; mindgr=1; noblas=0; minvec=7
 default implementation of scratch files=df  


 Variables initialized (1031), CPU time= 0.01 sec
 
 
 
 geometry={
            6
     F          0.00000000      0.00000000     -1.79137135
     C          0.00000000      0.00000000     -0.36561703
     H         -0.51179113      0.88644824     -0.01758668
     H         -0.51179113     -0.88644824     -0.01758668
     H          1.02358226      0.00000000     -0.01758668
     F          0.00000000      0.00000000      2.20974841
 }
 basis=cc-pVDZ
 angstrom
 charge=-1
 
 hf
 
 
 
 {put,xml;noorbitals,nobasis}
 Commands initialized (841), CPU time= 0.01 sec, 704 directives.
 Default parameters read. Elapsed time= 0.08 sec

 Checking input...
 Passed
1


                                         ***  PROGRAM SYSTEM MOLPRO  ***
                                       Copyright, TTI GmbH Stuttgart, 2015
                                    Version 2023.1 linked Mon Jun  5 13:27:10 2023


 **********************************************************************************************************************************
 LABEL *                                                                                                                                                                 
  (16 PROC) 64 bit serial version                                                        DATE: 02-Aug-23          TIME: 15:32:02  
 **********************************************************************************************************************************

 SHA1:             9738a14712571edd23541b6d7c4f3a3d766f8287
 **********************************************************************************************************************************

 Memory per process:       805 MW
 Total memory per node:   1074 MW
 Total GA space:           268 MW

 GA preallocation disabled
 GA check enabled

 Geometry recognized as XYZ


 Variable memory set to 805.3 MW

 SETTING BASIS          =    CC-PVDZ
 SETTING CHARGE         =        -1.00000000                                  


 Recomputing integrals since basis changed


 Using spherical harmonics

 Library entry F      S cc-pVDZ              selected for orbital group  1
 Library entry F      P cc-pVDZ              selected for orbital group  1
 Library entry F      D cc-pVDZ              selected for orbital group  1
 Library entry C      S cc-pVDZ              selected for orbital group  2
 Library entry C      P cc-pVDZ              selected for orbital group  2
 Library entry C      D cc-pVDZ              selected for orbital group  2
 Library entry H      S cc-pVDZ              selected for orbital group  3
 Library entry H      P cc-pVDZ              selected for orbital group  3


 PROGRAM * SEWARD (Integral evaluation for generally contracted gaussian basis sets)     Author: Roland Lindh, 1990

 Geometry written to block  1 of record 700


 Point group  Cs  



 ATOMIC COORDINATES

 NR  ATOM    CHARGE       X              Y              Z

   1  F       9.00    0.000000000    0.000000000   -3.385201239
   2  C       6.00    0.000000000    0.000000000   -0.690916053
   3  H       1.00   -0.967145069    1.675144397   -0.033234009
   4  H       1.00   -0.967145069   -1.675144397   -0.033234009
   5  H       1.00    1.934290137    0.000000000   -0.033234009
   6  F       9.00    0.000000000    0.000000000    4.175819299

 Bond lengths in Bohr (Angstrom)

 1-2  2.694285186  2-3  2.043042831  2-4  2.043042831  2-5  2.043042831
     ( 1.425754320)     ( 1.081131707)     ( 1.081131707)     ( 1.081131707)

 Bond angles

  1-2-3  108.77865447   1-2-4  108.77865447   1-2-5  108.77865447   3-2-4  110.15481872

  3-2-5  110.15481872   4-2-5  110.15481872

 NUCLEAR CHARGE:                   27
 NUMBER OF PRIMITIVE AOS:         102
 NUMBER OF SYMMETRY AOS:           99
 NUMBER OF CONTRACTIONS:           57   (   39A'  +   18A"  )
 NUMBER OF INNER CORE ORBITALS:     0   (    0A'  +    0A"  )
 NUMBER OF OUTER CORE ORBITALS:     3   (    3A'  +    0A"  )
 NUMBER OF VALENCE ORBITALS:       15   (   11A'  +    4A"  )


 NUCLEAR REPULSION ENERGY   64.36223019


 Eigenvalues of metric

         1 0.114E-01 0.226E-01 0.360E-01 0.406E-01 0.488E-01 0.492E-01 0.111E+00 0.117E+00
         2 0.360E-01 0.492E-01 0.126E+00 0.188E+00 0.204E+00 0.314E+00 0.510E+00 0.914E+00


 Contracted 2-electron integrals neglected if value below      1.0D-11
 AO integral compression algorithm  1   Integral accuracy      1.0D-11

     3.146 MB (compressed) written to integral file ( 43.1%)


 NUMBER OF SORTED TWO-ELECTRON INTEGRALS:     719436.     BUFFER LENGTH:  32768
 NUMBER OF SEGMENTS:   1  SEGMENT LENGTH:     719436      RECORD LENGTH: 524288

 Memory used in sort:       1.28 MW

 SORT1 READ      838681. AND WROTE      560525. INTEGRALS IN      2 RECORDS. CPU TIME:     0.01 SEC, REAL TIME:     0.20 SEC
 SORT2 READ      560525. AND WROTE      719436. INTEGRALS IN     12 RECORDS. CPU TIME:     0.04 SEC, REAL TIME:     0.06 SEC

 FILE SIZES:   FILE 1:    33.3 MBYTE,  FILE 4:     8.5 MBYTE,   TOTAL:     41.8 MBYTE

 OPERATOR DM      FOR CENTER  0  COORDINATES:    0.000000    0.000000    0.000000


 **********************************************************************************************************************************
 DATASETS  * FILE   NREC   LENGTH (MB)   RECORD NAMES
              1      19       31.04       500      610      700      900      950      970     1000      129      960     1100   
                                          VAR    BASINP    GEOM    SYMINP    ZMAT    AOBASIS   BASIS     P2S    ABASIS      S 
                                         1400     1410     1200     1210     1080     1600     1650     1300     1700   
                                           T        V       H0       H01     AOSYM     SMH    MOLCAS    ERIS     OPER   

 PROGRAMS   *        TOTAL       INT
 CPU TIMES  *         0.72      0.58
 REAL TIME  *         2.21 SEC
 DISK USED  *        40.24 MB
 **********************************************************************************************************************************


 Program * Restricted Hartree-Fock

 Orbital guess generated from atomic densities. Full valence occupancy:   14   4

 Initial occupancy:  11   3

 NELEC=   28   SYM=1   MS2= 0   THRE=1.0D-08   THRD=3.2D-06   THRG=3.2D-06  HFMA2=F  DIIS_START=2   DIIS_MAX=10   DIIS_INCORE=F

 Level shifts:    0.00 (CLOSED)    0.00 (OPEN)    0.30 (GAP_MIN)

 ITER           ETOT              DE          GRAD        DDIFF     DIIS  NEXP   TIME(IT)  TIME(TOT)  DIAG
   1     -238.35242545    -238.35242545     0.00D+00     0.23D+00     0     0       0.01      0.01    start
   2     -238.41847232      -0.06604687     0.19D-01     0.41D-01     1     0       0.01      0.02    diag
   3     -238.44643620      -0.02796388     0.11D-01     0.14D-01     2     0       0.00      0.02    diag
   4     -238.44679020      -0.00035400     0.77D-03     0.21D-02     3     0       0.01      0.03    diag
   5     -238.44680517      -0.00001497     0.14D-03     0.46D-03     4     0       0.01      0.04    diag
   6     -238.44680588      -0.00000071     0.36D-04     0.95D-04     5     0       0.01      0.05    diag
   7     -238.44680596      -0.00000008     0.13D-04     0.31D-04     6     0       0.01      0.06    diag
   8     -238.44680597      -0.00000001     0.41D-05     0.12D-04     7     0       0.00      0.06    fixocc
   9     -238.44680597      -0.00000000     0.10D-05     0.28D-05     8     0       0.01      0.07    diag
  10     -238.44680597      -0.00000000     0.21D-06     0.47D-06     0     0       0.01      0.08    diag/orth

 Final occupancy:  11   3

 !RHF STATE 1.1 Energy               -238.446805972442
  RHF One-electron energy            -468.202820718374
  RHF Two-electron energy             165.393784551880
  RHF Kinetic energy                  238.573294499664
  RHF Nuclear energy                   64.362230194053
  RHF Virial quotient                  -0.999469812715

 !RHF STATE 1.1 Dipole moment          -0.00000000     0.00000000    -2.60911434
 Dipole moment /Debye                  -0.00000000     0.00000000    -6.63170718

 Orbital energies:

           1.1          2.1          3.1          4.1          5.1          6.1          7.1          8.1          9.1         10.1
    -26.085497   -25.773635   -11.109258    -1.388384    -1.038314    -0.752751    -0.495396    -0.468052    -0.337548    -0.143039

          11.1         12.1         13.1
     -0.139775     0.381666     0.452809

           1.2          2.2          3.2          4.2          5.2
     -0.495396    -0.337548    -0.143039     0.452809     0.805940


 HOMO     11.1    -0.139775 =      -3.8035eV
 LUMO     12.1     0.381666 =      10.3857eV
 LUMO-HOMO         0.521442 =      14.1892eV

 Orbitals saved in record  2100.2


 **********************************************************************************************************************************
 DATASETS  * FILE   NREC   LENGTH (MB)   RECORD NAMES
              1      19       31.04       500      610      700      900      950      970     1000      129      960     1100   
                                          VAR    BASINP    GEOM    SYMINP    ZMAT    AOBASIS   BASIS     P2S    ABASIS      S 
                                         1400     1410     1200     1210     1080     1600     1650     1300     1700   
                                           T        V       H0       H01     AOSYM     SMH    MOLCAS    ERIS     OPER   

              2       4        0.49       700     1000      520     2100   
                                         GEOM     BASIS   MCVARS     RHF  

 PROGRAMS   *        TOTAL    HF-SCF       INT
 CPU TIMES  *         0.80      0.07      0.58
 REAL TIME  *         2.37 SEC
 DISK USED  *        40.24 MB
 **********************************************************************************************************************************

 Dump information in style XML to xml output                                                                      

 Orbitals will not be exported.

 **********************************************************************************************************************************

 HF/cc-pVDZ energy=   -238.446805972442

          HF-SCF
   -238.44680597
 **********************************************************************************************************************************
 Molpro calculation terminated
