
 Working directory              : /home/jovyan/scratch/molpro.8ukuYkILZa/
 Global scratch directory       : /home/jovyan/scratch/molpro.8ukuYkILZa/
 Wavefunction directory         : /home/jovyan/wfu/
 Main file repository           : /home/jovyan/scratch/molpro.8ukuYkILZa/

 id        : cardiff

 Nodes                nprocs
 jupyter-c-2efrancisan    1
 GA implementation: MPI file
 GA implementation (serial work in mppx): MPI file

 Using customized tuning parameters: mindgm=1; mindgv=20; mindgc=4; mindgr=1; noblas=0; minvec=7
 default implementation of scratch files=df  


 Variables initialized (1031), CPU time= 0.00 sec
 
 
 
 geometry={
 10
  C     1.1718442    1.4111858    0.0000000
  C     0.0357523    0.7227548    0.0000000
  C    -0.0357523   -0.7227548    0.0000000
  C    -1.1718442   -1.4111858    0.0000000
  H    -0.9095134    1.2507964    0.0000000
  H     1.1817440    2.4889070    0.0000000
  H     2.1293121    0.9111032    0.0000000
  H     0.9095134   -1.2507964    0.0000000
  H    -1.1817440   -2.4889070    0.0000000
  H    -2.1293121   -0.9111032    0.0000000
 }
 basis=cc-pVDZ
 angstrom
 
 
 hf; ccsd
 
 
 
 {put,xml;noorbitals,nobasis}
 Commands initialized (841), CPU time= 0.02 sec, 704 directives.
 Default parameters read. Elapsed time= 0.35 sec

 Checking input...
 Passed
1


                                         ***  PROGRAM SYSTEM MOLPRO  ***
                                       Copyright, TTI GmbH Stuttgart, 2015
                                    Version 2023.1 linked Mon Jun  5 13:27:10 2023


 **********************************************************************************************************************************
 LABEL *                                                                                                                                                                 
  (16 PROC) 64 bit serial version                                                        DATE: 04-Aug-23          TIME: 06:03:37  
 **********************************************************************************************************************************

 SHA1:             9738a14712571edd23541b6d7c4f3a3d766f8287
 **********************************************************************************************************************************

 Memory per process:       805 MW
 Total memory per node:   1074 MW
 Total GA space:           268 MW

 GA preallocation disabled
 GA check enabled

 Geometry recognized as XYZ


 Variable memory set to 805.3 MW

 SETTING BASIS          =    CC-PVDZ


 Recomputing integrals since basis changed


 Using spherical harmonics

 Library entry C      S cc-pVDZ              selected for orbital group  1
 Library entry C      P cc-pVDZ              selected for orbital group  1
 Library entry C      D cc-pVDZ              selected for orbital group  1
 Library entry H      S cc-pVDZ              selected for orbital group  2
 Library entry H      P cc-pVDZ              selected for orbital group  2


 PROGRAM * SEWARD (Integral evaluation for generally contracted gaussian basis sets)     Author: Roland Lindh, 1990

 Geometry written to block  1 of record 700


 Point group  C2h 



 ATOMIC COORDINATES

 NR  ATOM    CHARGE       X              Y              Z

   1  C       6.00    2.214464599    2.666754673    0.000000000
   2  C       6.00   -2.214464599   -2.666754673    0.000000000
   3  C       6.00    0.067562055    1.365808627    0.000000000
   4  C       6.00   -0.067562055   -1.365808627    0.000000000
   5  H       1.00   -1.718731233    2.363662634    0.000000000
   6  H       1.00    1.718731233   -2.363662634    0.000000000
   7  H       1.00    2.233172509    4.703352580    0.000000000
   8  H       1.00   -2.233172509   -4.703352580    0.000000000
   9  H       1.00    4.023816703    1.721735519    0.000000000
  10  H       1.00   -4.023816703   -1.721735519    0.000000000

 Bond lengths in Bohr (Angstrom)

 1-3  2.510308974  1-7  2.036683829  1-9  2.041278089  2-4  2.510308974  2-8  2.036683829
     ( 1.328398301)     ( 1.077766668)     ( 1.080197846)     ( 1.328398301)     ( 1.077766668)

  2-10  2.041278089   3- 4  2.734957285   3- 5  2.046107604   4- 6  2.046107604
       ( 1.080197846)       ( 1.447277068)       ( 1.082753515)       ( 1.082753515)

 Bond angles

  1-3-4  124.04628726   1-3-5  119.59716487   2-4-3  124.04628726   2-4-6  119.59716487

  3-1-7  121.74065849   3-1-9  121.20770824   3-4-6  116.35654787   4-2-8  121.74065849

  4- 2-10  121.20770824   4- 3- 5  116.35654787   7- 1- 9  117.05163327   8- 2-10  117.05163327

 NUCLEAR CHARGE:                   30
 NUMBER OF PRIMITIVE AOS:         150
 NUMBER OF SYMMETRY AOS:          146
 NUMBER OF CONTRACTIONS:           86   (   32Ag  +   11Au  +   32Bu  +   11Bg  )
 NUMBER OF INNER CORE ORBITALS:     0   (    0Ag  +    0Au  +    0Bu  +    0Bg  )
 NUMBER OF OUTER CORE ORBITALS:     4   (    2Ag  +    0Au  +    2Bu  +    0Bg  )
 NUMBER OF VALENCE ORBITALS:       22   (    9Ag  +    2Au  +    9Bu  +    2Bg  )


 NUCLEAR REPULSION ENERGY  104.43406737

 Eigenvalues of metric

         1 0.239E-02 0.125E-01 0.179E-01 0.221E-01 0.274E-01 0.344E-01 0.434E-01 0.537E-01
         2 0.121E+00 0.200E+00 0.287E+00 0.407E+00 0.496E+00 0.545E+00 0.141E+01 0.155E+01
         3 0.181E-02 0.379E-02 0.151E-01 0.242E-01 0.279E-01 0.370E-01 0.450E-01 0.584E-01
         4 0.785E-01 0.177E+00 0.303E+00 0.352E+00 0.447E+00 0.524E+00 0.563E+00 0.149E+01


 Contracted 2-electron integrals neglected if value below      1.0D-11
 AO integral compression algorithm  1   Integral accuracy      1.0D-11

     11.272 MB (compressed) written to integral file ( 57.9%)


 NUMBER OF SORTED TWO-ELECTRON INTEGRALS:    1923042.     BUFFER LENGTH:  32768
 NUMBER OF SEGMENTS:   1  SEGMENT LENGTH:    1923042      RECORD LENGTH: 524288

 Memory used in sort:       2.48 MW

 SORT1 READ     2392688. AND WROTE     1923039. INTEGRALS IN      6 RECORDS. CPU TIME:     0.06 SEC, REAL TIME:     0.26 SEC
 SORT2 READ     1923039. AND WROTE     1923042. INTEGRALS IN     43 RECORDS. CPU TIME:     0.09 SEC, REAL TIME:     0.11 SEC

 FILE SIZES:   FILE 1:    41.6 MBYTE,  FILE 4:    25.2 MBYTE,   TOTAL:     66.8 MBYTE

 OPERATOR DM      FOR CENTER  0  COORDINATES:    0.000000    0.000000    0.000000


 **********************************************************************************************************************************
 DATASETS  * FILE   NREC   LENGTH (MB)   RECORD NAMES
              1      19       37.40       500      610      700      900      950      970     1000      129      960     1100   
                                          VAR    BASINP    GEOM    SYMINP    ZMAT    AOBASIS   BASIS     P2S    ABASIS      S 
                                         1400     1410     1200     1210     1080     1600     1650     1300     1700   
                                           T        V       H0       H01     AOSYM     SMH    MOLCAS    ERIS     OPER   

 PROGRAMS   *        TOTAL       INT
 CPU TIMES  *         1.41      1.27
 REAL TIME  *         3.89 SEC
 DISK USED  *        64.23 MB
 **********************************************************************************************************************************


 Program * Restricted Hartree-Fock

 Orbital guess generated from atomic densities. Full valence occupancy:   11   2  11   2

 Initial occupancy:   7   1   6   1

 NELEC=   30   SYM=1   MS2= 0   THRE=1.0D-08   THRD=3.2D-06   THRG=3.2D-06  HFMA2=F  DIIS_START=2   DIIS_MAX=10   DIIS_INCORE=F

 Level shifts:    0.00 (CLOSED)    0.00 (OPEN)    0.30 (GAP_MIN)

 ITER           ETOT              DE          GRAD        DDIFF     DIIS  NEXP   TIME(IT)  TIME(TOT)  DIAG
   1     -154.89142932    -154.89142932     0.00D+00     0.20D+00     0     0       0.01      0.02    start
   2     -154.93051132      -0.03908200     0.84D-02     0.20D-01     1     0       0.01      0.03    diag
   3     -154.93408986      -0.00357855     0.27D-02     0.65D-02     2     0       0.01      0.04    diag
   4     -154.93455995      -0.00047009     0.89D-03     0.24D-02     3     0       0.01      0.05    diag
   5     -154.93458052      -0.00002056     0.22D-03     0.44D-03     4     0       0.01      0.06    diag
   6     -154.93458257      -0.00000205     0.50D-04     0.14D-03     5     0       0.01      0.07    diag
   7     -154.93458269      -0.00000012     0.11D-04     0.31D-04     6     0       0.02      0.09    diag
   8     -154.93458269      -0.00000001     0.26D-05     0.81D-05     7     0       0.00      0.09    fixocc
   9     -154.93458269      -0.00000000     0.63D-06     0.19D-05     8     0       0.02      0.11    diag
  10     -154.93458269      -0.00000000     0.15D-06     0.37D-06     0     0       0.01      0.12    diag/orth

 Final occupancy:   7   1   6   1

 !RHF STATE 1.1 Energy               -154.934582694651
  RHF One-electron energy            -414.224620228670
  RHF Two-electron energy             154.855970160081
  RHF Kinetic energy                  154.848394929120
  RHF Nuclear energy                  104.434067373938
  RHF Virial quotient                  -1.000556594504

 !RHF STATE 1.1 Dipole moment           0.00000000     0.00000000     0.00000000
 Dipole moment /Debye                   0.00000000     0.00000000     0.00000000

 Orbital energies:

           1.1          2.1          3.1          4.1          5.1          6.1          7.1          8.1          9.1
    -11.239479   -11.231935    -1.095495    -0.826601    -0.634831    -0.556607    -0.490884     0.207486     0.269999

           1.2          2.2          3.2
     -0.445120     0.121887     0.671718

           1.3          2.3          3.3          4.3          5.3          6.3          7.3          8.3
    -11.238650   -11.231922    -1.002650    -0.753751    -0.644253    -0.541717     0.203313     0.216448

           1.4          2.4          3.4
     -0.322446     0.244809     0.732119


 HOMO      1.4    -0.322446 =      -8.7742eV
 LUMO      2.2     0.121887 =       3.3167eV
 LUMO-HOMO         0.444333 =      12.0909eV

 Orbitals saved in record  2100.2


 **********************************************************************************************************************************
 DATASETS  * FILE   NREC   LENGTH (MB)   RECORD NAMES
              1      19       37.40       500      610      700      900      950      970     1000      129      960     1100   
                                          VAR    BASINP    GEOM    SYMINP    ZMAT    AOBASIS   BASIS     P2S    ABASIS      S 
                                         1400     1410     1200     1210     1080     1600     1650     1300     1700   
                                           T        V       H0       H01     AOSYM     SMH    MOLCAS    ERIS     OPER   

              2       4        0.57       700     1000      520     2100   
                                         GEOM     BASIS   MCVARS     RHF  

 PROGRAMS   *        TOTAL    HF-SCF       INT
 CPU TIMES  *         1.54      0.13      1.27
 REAL TIME  *         4.28 SEC
 DISK USED  *        64.23 MB
 **********************************************************************************************************************************


 PROGRAM * CCSD (Closed-shell coupled cluster)     Authors: C. Hampel, H.-J. Werner, 1991, M. Deegan, P.J. Knowles, 1992


 Convergence thresholds:  THRVAR = 1.00D-08  THRDEN = 1.00D-06

 Number of core orbitals:           4 (   2   0   2   0 )
 Number of closed-shell orbitals:  11 (   5   1   4   1 )
 Number of external orbitals:      71 (  25  10  26  10 )

 Molecular orbitals read from record     2100.2  Type=RHF/CANONICAL  

 Number of N-1 electron functions:              11
 Number of N-2 electron functions:              66
 Number of singly external CSFs:               249
 Number of doubly external CSFs:             82522
 Total number of CSFs:                       82772

 Length of J-op  integral file:               0.00 MB
 Length of K-op  integral file:               0.22 MB
 Length of 3-ext integral record:             0.00 MB

 Integral transformation finished. Total CPU:   0.07 sec, npass=  1  Memory used:   0.66 MW

 Reference energy:                   -154.93458269

 MP2 singlet pair energy:              -0.34362638
 MP2 triplet pair energy:              -0.18882025
 MP2 correlation energy:               -0.53244663
 MP2 total energy:                   -155.46702932

 SCS-MP2 correlation energy:           -0.52983981   (PS=  1.200000  PT=  0.333333)
 SCS-MP2 total energy:               -155.46442250

 ITER.      SQ.NORM     CORR.ENERGY   TOTAL ENERGY   ENERGY CHANGE        DEN1      VAR(S)    VAR(P)  DIIS     TIME  TIME/IT
   1      1.22013787    -0.57375856  -155.50834125    -0.04131193    -0.02486957  0.23D-02  0.39D-02  1  1     2.02     0.15
   2      1.24203958    -0.57837017  -155.51295287    -0.00461161    -0.01735240  0.51D-04  0.59D-03  2  2     2.17     0.16
   3      1.24934327    -0.57871496  -155.51329766    -0.00034479    -0.00299179  0.19D-04  0.69D-04  3  3     2.32     0.16
   4      1.25296821    -0.57883093  -155.51341362    -0.00011596    -0.00097105  0.75D-06  0.86D-05  4  4     2.47     0.16
   5      1.25394619    -0.57883834  -155.51342104    -0.00000741    -0.00017914  0.34D-06  0.95D-06  5  5     2.61     0.16
   6      1.25416283    -0.57883350  -155.51341620     0.00000484    -0.00002665  0.45D-07  0.12D-06  6  6     2.76     0.16
   7      1.25419666    -0.57883469  -155.51341738    -0.00000119     0.00000198  0.16D-07  0.22D-07  6  2     2.91     0.16
   8      1.25420726    -0.57883444  -155.51341713     0.00000025    -0.00000054  0.51D-08  0.24D-08  6  1     3.07     0.16
   9      1.25420786    -0.57883452  -155.51341722    -0.00000008     0.00000120  0.38D-09  0.52D-09  6  4     3.22     0.16

 Norm of t1 vector:      0.06991514      S-energy:    -0.00000036      T1 diagnostic:  0.01054010
                                                                       D1 diagnostic:  0.03200857
                                                                       D2 diagnostic:  0.20913857 (internal)

 Doubles amplitudes (print threshold =  0.500E-01):

         I         J         SYM. A    SYM. B    A         B      T(IJ, AB)

         6         6         2         2         1         1     -0.05724152
         6         6         4         4         1         1     -0.05005044
        11        11         2         2         1         1     -0.11910185
        11         6         4         2         1         1      0.06316016


 RESULTS
 =======

  Reference energy                   -154.934582694651
  CCSD singlet pair energy             -0.406815677200
  CCSD triplet pair energy             -0.172018482201
  CCSD correlation energy              -0.578834523760

 !CCSD total energy                  -155.513417218411

 Timing summary (sec):

 STEP                 CPU(USER)    SYS     CPU(TOT)    WALL
 Transformation          0.08      0.02      0.10      0.25
 CCSD iterations         3.16      0.10      3.26      1.49

 Program statistics:

 Available memory in ccsd:               805305877
 Min. memory needed in ccsd:                247363
 Max. memory used in ccsd:                  314573
 Max. memory used in cckext:                350911 ( 9 integral passes)



 **********************************************************************************************************************************
 DATASETS  * FILE   NREC   LENGTH (MB)   RECORD NAMES
              1      20       43.02       500      610      700      900      950      970     1000      129      960     1100   
                                          VAR    BASINP    GEOM    SYMINP    ZMAT    AOBASIS   BASIS     P2S    ABASIS      S 
                                         1400     1410     1200     1210     1080     1600     1650     1300     1700     1380   
                                           T        V       H0       H01     AOSYM     SMH    MOLCAS    ERIS     OPER     JKOP   

              2       4        0.57       700     1000      520     2100   
                                         GEOM     BASIS   MCVARS     RHF  

 PROGRAMS   *        TOTAL      CCSD    HF-SCF       INT
 CPU TIMES  *         3.03      1.48      0.13      1.27
 REAL TIME  *         6.06 SEC
 DISK USED  *        64.23 MB
 **********************************************************************************************************************************

 Dump information in style XML to xml output                                                                      

 Orbitals will not be exported.

 **********************************************************************************************************************************

 CCSD/cc-pVDZ energy=   -155.513417218411

            CCSD          HF-SCF
   -155.51341722   -154.93458269
 **********************************************************************************************************************************
 Molpro calculation terminated
