
 Working directory              : /home/jovyan/scratch/molpro.PUsXtTRsMD/
 Global scratch directory       : /home/jovyan/scratch/molpro.PUsXtTRsMD/
 Wavefunction directory         : /home/jovyan/wfu/
 Main file repository           : /home/jovyan/scratch/molpro.PUsXtTRsMD/

 id        : cardiff

 Nodes                nprocs
 jupyter-c-2efrancisan    1
 GA implementation: MPI file
 GA implementation (serial work in mppx): MPI file

 Using customized tuning parameters: mindgm=1; mindgv=20; mindgc=4; mindgr=1; noblas=0; minvec=7
 default implementation of scratch files=df  


 Variables initialized (1031), CPU time= 0.00 sec
 
 
 
 geometry={
            9
     C          0.64643893      0.66204762      0.00000000
     C          0.62059167     -0.72735291      0.00000000
     O         -1.43762017     -1.04803439      0.00000000
     N         -1.81431293      0.12667382      0.00000000
     N         -1.28271604      1.17289417      0.00000000
     H          0.87969100      1.19136240      0.91554310
     H          0.87969100      1.19136240     -0.91554310
     H          0.75411826     -1.28447655      0.91762992
     H          0.75411826     -1.28447655     -0.91762992
 }
 basis=cc-pVDZ
 angstrom
 
 
 hf; ccsd
 
 
 
 {put,xml;noorbitals,nobasis}
 Commands initialized (841), CPU time= 0.01 sec, 704 directives.
 Default parameters read. Elapsed time= 0.08 sec

 Checking input...
 Passed
1


                                         ***  PROGRAM SYSTEM MOLPRO  ***
                                       Copyright, TTI GmbH Stuttgart, 2015
                                    Version 2023.1 linked Mon Jun  5 13:27:10 2023


 **********************************************************************************************************************************
 LABEL *                                                                                                                                                                 
  (16 PROC) 64 bit serial version                                                        DATE: 03-Aug-23          TIME: 11:30:31  
 **********************************************************************************************************************************

 SHA1:             9738a14712571edd23541b6d7c4f3a3d766f8287
 **********************************************************************************************************************************

 Memory per process:       805 MW
 Total memory per node:   1074 MW
 Total GA space:           268 MW

 GA preallocation disabled
 GA check enabled

 Geometry recognized as XYZ


 Variable memory set to 805.3 MW

 SETTING BASIS          =    CC-PVDZ


 Recomputing integrals since basis changed


 Using spherical harmonics

 Library entry C      S cc-pVDZ              selected for orbital group  1
 Library entry C      P cc-pVDZ              selected for orbital group  1
 Library entry C      D cc-pVDZ              selected for orbital group  1
 Library entry O      S cc-pVDZ              selected for orbital group  2
 Library entry O      P cc-pVDZ              selected for orbital group  2
 Library entry O      D cc-pVDZ              selected for orbital group  2
 Library entry N      S cc-pVDZ              selected for orbital group  3
 Library entry N      P cc-pVDZ              selected for orbital group  3
 Library entry N      D cc-pVDZ              selected for orbital group  3
 Library entry H      S cc-pVDZ              selected for orbital group  4
 Library entry H      P cc-pVDZ              selected for orbital group  4


 PROGRAM * SEWARD (Integral evaluation for generally contracted gaussian basis sets)     Author: Roland Lindh, 1990

 Geometry written to block  1 of record 700


 Point group  Cs  



 ATOMIC COORDINATES

 NR  ATOM    CHARGE       X              Y              Z

   1  C       6.00    1.221592534    1.251088683    0.000000000
   2  C       6.00    1.172748292   -1.374497796    0.000000000
   3  O       8.00   -2.716708393   -1.980497966    0.000000000
   4  N       7.00   -3.428554542    0.239378827    0.000000000
   5  N       7.00   -2.423982011    2.216448754    0.000000000
   6  H       1.00    1.662375064    2.251348651    1.730125714
   7  H       1.00    1.662375064    2.251348651   -1.730125714
   8  H       1.00    1.425076977   -2.427308893    1.734069233
   9  H       1.00    1.425076977   -2.427308893   -1.734069233

 Bond lengths in Bohr (Angstrom)

 1-2  2.626040769  1-5  3.771224447  1-6  2.046495597  1-7  2.046495597  2-8  2.044279109
     ( 1.389640930)     ( 1.995646035)     ( 1.082958832)     ( 1.082958832)     ( 1.081785917)

 2-9  2.044279109  3-4  2.331218119  4-5  2.217649988
     ( 1.081785917)     ( 1.233627502)     ( 1.173529835)

 Bond angles

  1-2-8  120.83841687   1-2-9  120.83841687   1-5-4  102.10396580   2-1-5  103.76593409

  2-1-6  119.51746247   2-1-7  119.51746247   3-4-5  135.28489323   5-1-6   94.76637282

  5-1-7   94.76637282   6-1-7  115.43155810   8-2-9  116.04467695

 NUCLEAR CHARGE:                   38
 NUMBER OF PRIMITIVE AOS:         163
 NUMBER OF SYMMETRY AOS:          158
 NUMBER OF CONTRACTIONS:           90   (   60A'  +   30A"  )
 NUMBER OF INNER CORE ORBITALS:     0   (    0A'  +    0A"  )
 NUMBER OF OUTER CORE ORBITALS:     5   (    5A'  +    0A"  )
 NUMBER OF VALENCE ORBITALS:       24   (   17A'  +    7A"  )


 NUCLEAR REPULSION ENERGY  166.89563664

 Eigenvalues of metric

         1 0.295E-02 0.453E-02 0.827E-02 0.126E-01 0.243E-01 0.290E-01 0.367E-01 0.438E-01
         2 0.162E-01 0.281E-01 0.395E-01 0.616E-01 0.997E-01 0.108E+00 0.142E+00 0.176E+00


 Contracted 2-electron integrals neglected if value below      1.0D-11
 AO integral compression algorithm  1   Integral accuracy      1.0D-11

     21.234 MB (compressed) written to integral file ( 53.1%)


 NUMBER OF SORTED TWO-ELECTRON INTEGRALS:    4336560.     BUFFER LENGTH:  32768
 NUMBER OF SEGMENTS:   1  SEGMENT LENGTH:    4336560      RECORD LENGTH: 524288

 Memory used in sort:       4.89 MW

 SORT1 READ     4964004. AND WROTE     4315133. INTEGRALS IN     13 RECORDS. CPU TIME:     0.06 SEC, REAL TIME:     0.17 SEC
 SORT2 READ     4315133. AND WROTE     4336560. INTEGRALS IN     81 RECORDS. CPU TIME:     0.13 SEC, REAL TIME:     0.16 SEC

 FILE SIZES:   FILE 1:    51.6 MBYTE,  FILE 4:    54.6 MBYTE,   TOTAL:    106.2 MBYTE

 OPERATOR DM      FOR CENTER  0  COORDINATES:    0.000000    0.000000    0.000000


 **********************************************************************************************************************************
 DATASETS  * FILE   NREC   LENGTH (MB)   RECORD NAMES
              1      19       46.48       500      610      700      900      950      970     1000      129      960     1100   
                                          VAR    BASINP    GEOM    SYMINP    ZMAT    AOBASIS   BASIS     P2S    ABASIS      S 
                                         1400     1410     1200     1210     1080     1600     1650     1300     1700   
                                           T        V       H0       H01     AOSYM     SMH    MOLCAS    ERIS     OPER   

 PROGRAMS   *        TOTAL       INT
 CPU TIMES  *         1.72      1.59
 REAL TIME  *         2.97 SEC
 DISK USED  *       101.74 MB
 **********************************************************************************************************************************


 Program * Restricted Hartree-Fock

 Orbital guess generated from atomic densities. Full valence occupancy:   22   7

 Initial occupancy:  15   4

 NELEC=   38   SYM=1   MS2= 0   THRE=1.0D-08   THRD=3.2D-06   THRG=3.2D-06  HFMA2=F  DIIS_START=2   DIIS_MAX=10   DIIS_INCORE=F

 Level shifts:    0.00 (CLOSED)    0.00 (OPEN)    0.30 (GAP_MIN)

 ITER           ETOT              DE          GRAD        DDIFF     DIIS  NEXP   TIME(IT)  TIME(TOT)  DIAG
   1     -261.54304000    -261.54304000     0.00D+00     0.16D+00     0     0       0.04      0.07    start
   2     -261.59696453      -0.05392453     0.12D-01     0.27D-01     1     0       0.04      0.11    diag
   3     -261.65382536      -0.05686083     0.95D-02     0.13D-01     2     0       0.03      0.14    diag
   4     -261.65599300      -0.00216764     0.12D-02     0.27D-02     3     0       0.04      0.18    diag
   5     -261.65641836      -0.00042536     0.53D-03     0.11D-02     4     0       0.03      0.21    diag
   6     -261.65657584      -0.00015748     0.28D-03     0.62D-03     5     0       0.03      0.24    diag
   7     -261.65667108      -0.00009524     0.18D-03     0.58D-03     6     0       0.04      0.28    diag
   8     -261.65670326      -0.00003218     0.77D-04     0.36D-03     7     0       0.03      0.31    fixocc
   9     -261.65671515      -0.00001189     0.46D-04     0.25D-03     8     0       0.04      0.35    diag
  10     -261.65671833      -0.00000318     0.22D-04     0.15D-03     9     0       0.03      0.38    diag/orth
  11     -261.65671866      -0.00000033     0.75D-05     0.49D-04     9     0       0.03      0.41    diag
  12     -261.65671869      -0.00000003     0.26D-05     0.12D-04     9     0       0.04      0.45    diag
  13     -261.65671869      -0.00000000     0.97D-06     0.40D-05     9     0       0.04      0.49    diag
  14     -261.65671869      -0.00000000     0.34D-06     0.13D-05     9     0       0.03      0.52    diag
  15     -261.65671869      -0.00000000     0.13D-06     0.29D-06     0     0       0.03      0.55    diag

 Final occupancy:  15   4

 !RHF STATE 1.1 Energy               -261.656718690173
  RHF One-electron energy            -686.555827186126
  RHF Two-electron energy             258.003471860435
  RHF Kinetic energy                  261.261120415344
  RHF Nuclear energy                  166.895636635517
  RHF Virial quotient                  -1.001514187317

 !RHF STATE 1.1 Dipole moment           0.85582688    -0.00938346     0.00000000
 Dipole moment /Debye                   2.17529497    -0.02385037     0.00000000

 Orbital energies:

           1.1          2.1          3.1          4.1          5.1          6.1          7.1          8.1          9.1         10.1
    -20.623210   -15.745994   -15.675774   -11.294963   -11.259424    -1.545316    -1.323127    -1.060877    -0.837916    -0.808454

          11.1         12.1         13.1         14.1         15.1         16.1         17.1
     -0.707252    -0.652508    -0.599121    -0.445601    -0.365499     0.083133     0.186378

           1.2          2.2          3.2          4.2          5.2          6.2
     -0.696068    -0.647327    -0.539929    -0.446076     0.169934     0.219504


 HOMO     15.1    -0.365499 =      -9.9457eV
 LUMO     16.1     0.083133 =       2.2622eV
 LUMO-HOMO         0.448632 =      12.2079eV

 Orbitals saved in record  2100.2


 **********************************************************************************************************************************
 DATASETS  * FILE   NREC   LENGTH (MB)   RECORD NAMES
              1      19       46.48       500      610      700      900      950      970     1000      129      960     1100   
                                          VAR    BASINP    GEOM    SYMINP    ZMAT    AOBASIS   BASIS     P2S    ABASIS      S 
                                         1400     1410     1200     1210     1080     1600     1650     1300     1700   
                                           T        V       H0       H01     AOSYM     SMH    MOLCAS    ERIS     OPER   

              2       4        0.59       700     1000      520     2100   
                                         GEOM     BASIS   MCVARS     RHF  

 PROGRAMS   *        TOTAL    HF-SCF       INT
 CPU TIMES  *         2.28      0.56      1.59
 REAL TIME  *         3.68 SEC
 DISK USED  *       101.74 MB
 **********************************************************************************************************************************


 PROGRAM * CCSD (Closed-shell coupled cluster)     Authors: C. Hampel, H.-J. Werner, 1991, M. Deegan, P.J. Knowles, 1992


 Convergence thresholds:  THRVAR = 1.00D-08  THRDEN = 1.00D-06

 Number of core orbitals:           5 (   5   0 )
 Number of closed-shell orbitals:  14 (  10   4 )
 Number of external orbitals:      71 (  45  26 )

 Molecular orbitals read from record     2100.2  Type=RHF/CANONICAL  

 Number of N-1 electron functions:              14
 Number of N-2 electron functions:             105
 Number of singly external CSFs:               554
 Number of doubly external CSFs:            250755
 Total number of CSFs:                      251310

 Length of J-op  integral file:               0.00 MB
 Length of K-op  integral file:               0.37 MB
 Length of 3-ext integral record:             0.00 MB

 Integral transformation finished. Total CPU:   0.21 sec, npass=  1  Memory used:   2.03 MW

 Reference energy:                   -261.65671869

 MP2 singlet pair energy:              -0.49748064
 MP2 triplet pair energy:              -0.34031643
 MP2 correlation energy:               -0.83779707
 MP2 total energy:                   -262.49451576

 SCS-MP2 correlation energy:           -0.80872921   (PS=  1.200000  PT=  0.333333)
 SCS-MP2 total energy:               -262.46544790

 ITER.      SQ.NORM     CORR.ENERGY   TOTAL ENERGY   ENERGY CHANGE        DEN1      VAR(S)    VAR(P)  DIIS     TIME  TIME/IT
   1      1.28376548    -0.84337913  -262.50009782    -0.00558206     0.03451781  0.13D-01  0.12D-01  1  1     3.40     0.66
   2      1.31175047    -0.84240796  -262.49912665     0.00097117    -0.02961039  0.62D-03  0.14D-02  2  2     4.07     0.69
   3      1.32976665    -0.84397879  -262.50069748    -0.00157083    -0.00716752  0.53D-03  0.15D-03  3  3     4.74     0.69
   4      1.33790852    -0.84383671  -262.50055540     0.00014208    -0.00226831  0.98D-04  0.36D-04  4  4     5.40     0.70
   5      1.34485189    -0.84396502  -262.50068371    -0.00012831    -0.00131312  0.16D-04  0.44D-05  5  5     6.07     0.70
   6      1.34681099    -0.84389188  -262.50061057     0.00007314    -0.00019925  0.26D-05  0.88D-06  6  6     6.75     0.70
   7      1.34748516    -0.84387936  -262.50059805     0.00001252    -0.00003905  0.73D-06  0.15D-06  6  2     7.42     0.70
   8      1.34768430    -0.84387957  -262.50059826    -0.00000021    -0.00000847  0.11D-06  0.48D-07  6  1     8.10     0.70
   9      1.34773969    -0.84387909  -262.50059778     0.00000047     0.00000913  0.27D-07  0.78D-08  6  4     8.76     0.70
  10      1.34777334    -0.84388118  -262.50059987    -0.00000209    -0.00000757  0.46D-08  0.18D-08  6  3     9.43     0.70
  11      1.34777701    -0.84388085  -262.50059954     0.00000033    -0.00000019  0.15D-08  0.44D-09  6  5    10.11     0.71
  12      1.34777542    -0.84388138  -262.50060007    -0.00000053     0.00000046  0.36D-09  0.11D-09  6  6    10.78     0.71

 Norm of t1 vector:      0.17968429      S-energy:     0.00000132      T1 diagnostic:  0.02401132
                                                                       D1 diagnostic:  0.09545972
                                                                       D2 diagnostic:  0.20633338 (external, symmetry=1)

 Singles amplitudes (print threshold =  0.500E-01):

         I         SYM. A    A   T(IA)

         9         1         1     -0.07931204

 Doubles amplitudes (print threshold =  0.500E-01):

         I         J         SYM. A    SYM. B    A         B      T(IJ, AB)

         9         9         1         1         1         1     -0.08584218
        10        10         1         1         1         1     -0.07379640
        10        10         1         1         3         3     -0.05449296
        14        14         2         2         1         1     -0.08130180
        14         9         2         1         1         1      0.05118897


 RESULTS
 =======

  Reference energy                   -261.656718690173
  CCSD singlet pair energy             -0.555414126891
  CCSD triplet pair energy             -0.288468573575
  CCSD correlation energy              -0.843881378669

 !CCSD total energy                  -262.500600068843

 Timing summary (sec):

 STEP                 CPU(USER)    SYS     CPU(TOT)    WALL
 Transformation          0.23      0.05      0.28      0.37
 CCSD iterations        10.58      0.39     10.97      8.51

 Program statistics:

 Available memory in ccsd:               805305569
 Min. memory needed in ccsd:                712162
 Max. memory used in ccsd:                  922481
 Max. memory used in cckext:               1045634 (12 integral passes)



 **********************************************************************************************************************************
 DATASETS  * FILE   NREC   LENGTH (MB)   RECORD NAMES
              1      20       61.36       500      610      700      900      950      970     1000      129      960     1100   
                                          VAR    BASINP    GEOM    SYMINP    ZMAT    AOBASIS   BASIS     P2S    ABASIS      S 
                                         1400     1410     1200     1210     1080     1600     1650     1300     1700     1380   
                                           T        V       H0       H01     AOSYM     SMH    MOLCAS    ERIS     OPER     JKOP   

              2       4        0.59       700     1000      520     2100   
                                         GEOM     BASIS   MCVARS     RHF  

 PROGRAMS   *        TOTAL      CCSD    HF-SCF       INT
 CPU TIMES  *        10.62      8.34      0.56      1.59
 REAL TIME  *        12.61 SEC
 DISK USED  *       104.25 MB
 **********************************************************************************************************************************

 Dump information in style XML to xml output                                                                      

 Orbitals will not be exported.

 **********************************************************************************************************************************

 CCSD/cc-pVDZ energy=   -262.500600068843

            CCSD          HF-SCF
   -262.50060007   -261.65671869
 **********************************************************************************************************************************
 Molpro calculation terminated
