
 Working directory              : /home/jovyan/scratch/molpro.H8wtUp3xr9/
 Global scratch directory       : /home/jovyan/scratch/molpro.H8wtUp3xr9/
 Wavefunction directory         : /home/jovyan/wfu/
 Main file repository           : /home/jovyan/scratch/molpro.H8wtUp3xr9/

 id        : cardiff

 Nodes                nprocs
 jupyter-c-2efrancisan    1
 GA implementation: MPI file
 GA implementation (serial work in mppx): MPI file

 Using customized tuning parameters: mindgm=1; mindgv=20; mindgc=4; mindgr=1; noblas=0; minvec=7
 default implementation of scratch files=df  


 Variables initialized (1031), CPU time= 0.01 sec
 
 
 
 geometry={
            6
     C         -0.66347200      0.00000000      0.00000000
     C          0.66347200      0.00000000      0.00000000
     H         -1.23459900     -0.92251800      0.00000000
     H         -1.23459900      0.92251800      0.00000000
     H          1.23459900      0.92251800      0.00000000
     H          1.23459900     -0.92251800      0.00000000
 }
 basis=cc-pVDZ
 angstrom
 
 
 hf; papt;mp3
 
 
 
 {put,xml;noorbitals,nobasis}
 Commands initialized (841), CPU time= 0.01 sec, 704 directives.
 Default parameters read. Elapsed time= 0.09 sec

 Checking input...
 Passed
1


                                         ***  PROGRAM SYSTEM MOLPRO  ***
                                       Copyright, TTI GmbH Stuttgart, 2015
                                    Version 2023.1 linked Mon Jun  5 13:27:10 2023


 **********************************************************************************************************************************
 LABEL *                                                                                                                                                                 
  (16 PROC) 64 bit serial version                                                        DATE: 03-Aug-23          TIME: 10:54:44  
 **********************************************************************************************************************************

 SHA1:             9738a14712571edd23541b6d7c4f3a3d766f8287
 **********************************************************************************************************************************

 Memory per process:       805 MW
 Total memory per node:   1074 MW
 Total GA space:           268 MW

 GA preallocation disabled
 GA check enabled

 Geometry recognized as XYZ


 Variable memory set to 805.3 MW

 SETTING BASIS          =    CC-PVDZ


 Recomputing integrals since basis changed


 Using spherical harmonics

 Library entry C      S cc-pVDZ              selected for orbital group  1
 Library entry C      P cc-pVDZ              selected for orbital group  1
 Library entry C      D cc-pVDZ              selected for orbital group  1
 Library entry H      S cc-pVDZ              selected for orbital group  2
 Library entry H      P cc-pVDZ              selected for orbital group  2


 PROGRAM * SEWARD (Integral evaluation for generally contracted gaussian basis sets)     Author: Roland Lindh, 1990

 Geometry written to block  1 of record 700


 Point group  D2h 



 ATOMIC COORDINATES

 NR  ATOM    CHARGE       X              Y              Z

   1  C       6.00   -1.253780371    0.000000000    0.000000000
   2  C       6.00    1.253780371    0.000000000    0.000000000
   3  H       1.00   -2.333053984   -1.743306365    0.000000000
   4  H       1.00   -2.333053984    1.743306365    0.000000000
   5  H       1.00    2.333053984    1.743306365    0.000000000
   6  H       1.00    2.333053984   -1.743306365    0.000000000

 Bond lengths in Bohr (Angstrom)

 1-2  2.507560743  1-3  2.050353290  1-4  2.050353290  2-5  2.050353290  2-6  2.050353290
     ( 1.326944000)     ( 1.085000235)     ( 1.085000235)     ( 1.085000235)     ( 1.085000235)

 Bond angles

  1-2-5  121.76147493   1-2-6  121.76147493   2-1-3  121.76147493   2-1-4  121.76147493

  3-1-4  116.47705014   5-2-6  116.47705014

 NUCLEAR CHARGE:                   16
 NUMBER OF PRIMITIVE AOS:          82
 NUMBER OF SYMMETRY AOS:           80
 NUMBER OF CONTRACTIONS:           48   (   11Ag  +   11B3u +    7B2u +    7B1g +    4B1u +    4B2g +    2B3g +    2Au  )
 NUMBER OF INNER CORE ORBITALS:     0   (    0Ag  +    0B3u +    0B2u +    0B1g +    0B1u +    0B2g +    0B3g +    0Au  )
 NUMBER OF OUTER CORE ORBITALS:     2   (    1Ag  +    1B3u +    0B2u +    0B1g +    0B1u +    0B2g +    0B3g +    0Au  )
 NUMBER OF VALENCE ORBITALS:       12   (    3Ag  +    3B3u +    2B2u +    2B1g +    1B1u +    1B2g +    0B3g +    0Au  )


 NUCLEAR REPULSION ENERGY   33.42546957

 Eigenvalues of metric

         1 0.163E-01 0.475E-01 0.886E-01 0.139E+00 0.353E+00 0.968E+00 0.106E+01 0.127E+01
         2 0.376E-02 0.278E-01 0.435E-01 0.607E-01 0.119E+00 0.354E+00 0.887E+00 0.986E+00
         3 0.399E-01 0.637E-01 0.147E+00 0.750E+00 0.110E+01 0.167E+01 0.400E+01
         4 0.159E-01 0.264E-01 0.114E+00 0.226E+00 0.105E+01 0.112E+01 0.198E+01
         5 0.191E+00 0.575E+00 0.160E+01 0.305E+01
         6 0.119E+00 0.308E+00 0.493E+00 0.169E+01
         7 0.516E+00 0.165E+01
         8 0.368E+00 0.144E+01


 Contracted 2-electron integrals neglected if value below      1.0D-11
 AO integral compression algorithm  1   Integral accuracy      1.0D-11

     1.049 MB (compressed) written to integral file ( 74.6%)


 NUMBER OF SORTED TWO-ELECTRON INTEGRALS:     101266.     BUFFER LENGTH:  32768
 NUMBER OF SEGMENTS:   1  SEGMENT LENGTH:     101266      RECORD LENGTH: 524288

 Memory used in sort:       0.66 MW

 SORT1 READ      166944. AND WROTE      101266. INTEGRALS IN      1 RECORDS. CPU TIME:     0.01 SEC, REAL TIME:     0.01 SEC
 SORT2 READ      101266. AND WROTE      101266. INTEGRALS IN      4 RECORDS. CPU TIME:     0.02 SEC, REAL TIME:     0.02 SEC

 FILE SIZES:   FILE 1:    31.2 MBYTE,  FILE 4:     4.3 MBYTE,   TOTAL:     35.4 MBYTE

 OPERATOR DM      FOR CENTER  0  COORDINATES:    0.000000    0.000000    0.000000


 **********************************************************************************************************************************
 DATASETS  * FILE   NREC   LENGTH (MB)   RECORD NAMES
              1      19       29.26       500      610      700      900      950      970     1000      129      960     1100   
                                          VAR    BASINP    GEOM    SYMINP    ZMAT    AOBASIS   BASIS     P2S    ABASIS      S 
                                         1400     1410     1200     1210     1080     1600     1650     1300     1700   
                                           T        V       H0       H01     AOSYM     SMH    MOLCAS    ERIS     OPER   

 PROGRAMS   *        TOTAL       INT
 CPU TIMES  *         0.59      0.44
 REAL TIME  *         1.67 SEC
 DISK USED  *        34.20 MB
 **********************************************************************************************************************************


 Program * Restricted Hartree-Fock

 Orbital guess generated from atomic densities. Full valence occupancy:    4   4   2   2   1   1   0   0


 Initial occupancy:   3   2   1   1   1   0   0   0

 NELEC=   16   SYM=1   MS2= 0   THRE=1.0D-08   THRD=3.2D-06   THRG=3.2D-06  HFMA2=F  DIIS_START=2   DIIS_MAX=10   DIIS_INCORE=F

 Level shifts:    0.00 (CLOSED)    0.00 (OPEN)    0.30 (GAP_MIN)

 ITER           ETOT              DE          GRAD        DDIFF     DIIS  NEXP   TIME(IT)  TIME(TOT)  DIAG
   1      -78.01805729     -78.01805729     0.00D+00     0.35D+00     0     0       0.00      0.00    start
   2      -78.03799865      -0.01994135     0.15D-01     0.34D-01     1     0       0.00      0.00    diag
   3      -78.03987887      -0.00188022     0.51D-02     0.10D-01     2     0       0.00      0.00    diag
   4      -78.04010587      -0.00022700     0.15D-02     0.37D-02     3     0       0.00      0.00    diag
   5      -78.04010812      -0.00000225     0.14D-03     0.42D-03     4     0       0.00      0.00    diag
   6      -78.04010818      -0.00000006     0.21D-04     0.67D-04     5     0       0.00      0.00    diag
   7      -78.04010818      -0.00000000     0.31D-05     0.88D-05     6     0       0.00      0.00    diag
   8      -78.04010818      -0.00000000     0.34D-06     0.11D-05     7     0       0.00      0.00    fixocc
   9      -78.04010818      -0.00000000     0.35D-07     0.76D-07     0     0       0.01      0.01    diag

 Final occupancy:   3   2   1   1   1   0   0   0

 !RHF STATE 1.1 Energy                -78.040108178585
  RHF One-electron energy            -170.148178108052
  RHF Two-electron energy              58.682600358778
  RHF Kinetic energy                   77.901004608073
  RHF Nuclear energy                   33.425469570689
  RHF Virial quotient                  -1.001785645400

 !RHF STATE 1.1 Dipole moment           0.00000000     0.00000000     0.00000000
 Dipole moment /Debye                   0.00000000     0.00000000     0.00000000

 Orbital energies:

           1.1          2.1          3.1          4.1          5.1
    -11.235551    -1.033065    -0.585041     0.203777     0.578432

           1.2          2.2          3.2          4.2
    -11.233843    -0.788987     0.238043     0.464918

           1.3          2.3          3.3
     -0.638328     0.232362     0.610720

           1.4          2.4          3.4
     -0.501046     0.303668     0.934203

           1.5          2.5          3.5
     -0.375627     0.687697     1.265537

           1.6          2.6
      0.169489     0.808395

           1.7          2.7
      1.130656     1.967702

           1.8          2.8
      1.294411     2.367857


 HOMO      1.5    -0.375627 =     -10.2213eV
 LUMO      1.6     0.169489 =       4.6120eV
 LUMO-HOMO         0.545116 =      14.8334eV

 Orbitals saved in record  2100.2


 **********************************************************************************************************************************
 DATASETS  * FILE   NREC   LENGTH (MB)   RECORD NAMES
              1      19       29.26       500      610      700      900      950      970     1000      129      960     1100   
                                          VAR    BASINP    GEOM    SYMINP    ZMAT    AOBASIS   BASIS     P2S    ABASIS      S 
                                         1400     1410     1200     1210     1080     1600     1650     1300     1700   
                                           T        V       H0       H01     AOSYM     SMH    MOLCAS    ERIS     OPER   

              2       4        0.47       700     1000      520     2100   
                                         GEOM     BASIS   MCVARS     RHF  

 PROGRAMS   *        TOTAL    HF-SCF       INT
 CPU TIMES  *         0.61      0.02      0.44
 REAL TIME  *         1.73 SEC
 DISK USED  *        34.20 MB
 **********************************************************************************************************************************


 PROGRAM * PAPT (Closed-shell)     Authors: C. Hampel, H.-J. Werner, 1991, P.J. Knowles, 2021


 Convergence thresholds:  THRVAR = 1.00D-08  THRDEN = 1.00D-06

 Number of core orbitals:           2 (   1   1   0   0   0   0   0   0 )
 Number of closed-shell orbitals:   6 (   2   1   1   1   1   0   0   0 )
 Number of external orbitals:      40 (   8   9   6   6   3   4   2   2 )

 Molecular orbitals read from record     2100.2  Type=RHF/CANONICAL  

 Number of N-1 electron functions:               6
 Number of N-2 electron functions:              21
 Number of singly external CSFs:                40
 Number of doubly external CSFs:              4062
 Total number of CSFs:                        4103

 Length of J-op  integral file:               0.00 MB
 Length of K-op  integral file:               0.09 MB

 Integral transformation finished. Total CPU:   0.00 sec, npass=  1  Memory used:   0.07 MW

 Reference energy:                    -78.04010818

                        CORR.ENERGY   TOTAL ENERGY   ENERGY CHANGE
 MP2:                   -0.27451405   -78.31462223    -0.27451405

 SCS-MP2 correlation energy:           -0.27719655   (PS=  1.200000  PT=  0.333333)
 SCS-MP2 total energy:                -78.31730473
 Iteration:   1     0.2666D+00
 Iteration:   2     0.8508D+00
 Iteration:   3     0.1060D+00
 Iteration:   4     0.1759D+00
 Iteration:   5     0.3830D-01
 Iteration:   6     0.2050D-01
 Iteration:   7     0.5103D-01
 Iteration:   8     0.4416D-02
 Iteration:   9     0.4198D-02
 Iteration:  10     0.1627D-02
 Iteration:  11     0.8247D-03
 Iteration:  12     0.1117D-02
 Iteration:  13     0.1168D-03
 Iteration:  14     0.4595D-04
 PAPT operator written to  7000.1
 PAPT orbitals and eigenvalues written to  7000.2

 MP3(D):                -0.29983944   -78.33994762    -0.02532539



 RESULTS
 =======

  Reference energy                    -78.040108178585
  MP3 singlet pair energy              -0.212296061791
  MP3 triplet pair energy              -0.087543375293
  MP3 correlation energy               -0.299839437084

 !MP3 total energy                    -78.339947615669

 Timing summary (sec):

 STEP                 CPU(USER)    SYS     CPU(TOT)    WALL
 CCSD iterations         0.91      0.00      0.91      0.07

 Program statistics:

 Available memory in ccsd:               805306221
 Min. memory needed in ccsd:                 16920
 Max. memory used in ccsd:                   19600
 Max. memory used in cckext:                 50619 ( 1 integral passes)



 **********************************************************************************************************************************
 DATASETS  * FILE   NREC   LENGTH (MB)   RECORD NAMES
              1      21       29.35       500      610      700      900      950      970     1000      129      960     1100   
                                          VAR    BASINP    GEOM    SYMINP    ZMAT    AOBASIS   BASIS     P2S    ABASIS      S 
                                         1400     1410     1200     1210     1080     1600     1650     1300     1700     1380   
                                           T        V       H0       H01     AOSYM     SMH    MOLCAS    ERIS     OPER     JKOP   
                                         7000   
                                        PAPT AO    

              2       5        0.58       700     1000      520     2100     7000   
                                         GEOM     BASIS   MCVARS     RHF     PAPT   

 PROGRAMS   *        TOTAL      PAPT    HF-SCF       INT
 CPU TIMES  *         0.70      0.09      0.02      0.44
 REAL TIME  *         2.05 SEC
 DISK USED  *        34.20 MB
 **********************************************************************************************************************************


 PROGRAM * MP3 (Closed-shell)     Authors: C. Hampel, H.-J. Werner, 1991, M. Deegan, P.J. Knowles, 1992


 Convergence thresholds:  THRVAR = 1.00D-08  THRDEN = 1.00D-06

 Number of core orbitals:           2 (   1   1   0   0   0   0   0   0 )
 Number of closed-shell orbitals:   6 (   2   1   1   1   1   0   0   0 )
 Number of external orbitals:      40 (   8   9   6   6   3   4   2   2 )

 Molecular orbitals read from record     7000.2  Type=PAPT/CANONICAL (state 1.1)

 Number of N-1 electron functions:               6
 Number of N-2 electron functions:              21
 Number of singly external CSFs:                40
 Number of doubly external CSFs:              4062
 Total number of CSFs:                        4103

 Length of J-op  integral file:               0.00 MB
 Length of K-op  integral file:               0.09 MB

 Integral transformation finished. Total CPU:   0.00 sec, npass=  1  Memory used:   0.07 MW
 Orbital energies read from record       7000.2  Type=PAPT/CANONICAL (state 1.1)

 Reference energy:                    -78.04010818

                        CORR.ENERGY   TOTAL ENERGY   ENERGY CHANGE
 MP2:                   -0.30501696   -78.34512514    -0.30501696

 SCS-MP2 correlation energy:           -0.31022749   (PS=  1.200000  PT=  0.333333)
 SCS-MP2 total energy:                -78.35033567

 MP3(D):                -0.30530374   -78.34541192    -0.00028678



 RESULTS
 =======

  Reference energy                    -78.040108178585
  MP3 singlet pair energy              -0.218875052669
  MP3 triplet pair energy              -0.086428686060
  MP3 correlation energy               -0.305303738729

 !MP3 total energy                    -78.345411917315

 Timing summary (sec):

 STEP                 CPU(USER)    SYS     CPU(TOT)    WALL
 CCSD iterations         0.96      0.01      0.97      0.02

 Program statistics:

 Available memory in ccsd:               805306221
 Min. memory needed in ccsd:                 16920
 Max. memory used in ccsd:                   19600
 Max. memory used in cckext:                 50619 ( 1 integral passes)



 **********************************************************************************************************************************
 DATASETS  * FILE   NREC   LENGTH (MB)   RECORD NAMES
              1      21       29.35       500      610      700      900      950      970     1000      129      960     1100   
                                          VAR    BASINP    GEOM    SYMINP    ZMAT    AOBASIS   BASIS     P2S    ABASIS      S 
                                         1400     1410     1200     1210     1080     1600     1650     1300     1700     1380   
                                           T        V       H0       H01     AOSYM     SMH    MOLCAS    ERIS     OPER     JKOP   
                                         7000   
                                        PAPT AO    

              2       5        0.58       700     1000      520     2100     7000   
                                         GEOM     BASIS   MCVARS     RHF     PAPT   

 PROGRAMS   *        TOTAL       MP3      PAPT    HF-SCF       INT
 CPU TIMES  *         0.76      0.05      0.09      0.02      0.44
 REAL TIME  *         2.15 SEC
 DISK USED  *        34.20 MB
 **********************************************************************************************************************************

 Dump information in style XML to xml output                                                                      

 Orbitals will not be exported.

 **********************************************************************************************************************************

 MP3/cc-pVDZ energy=    -78.345411917315

             MP3            PAPT          HF-SCF
    -78.34541192    -78.33994762    -78.04010818
 **********************************************************************************************************************************
 Molpro calculation terminated
