
 Working directory              : /home/jovyan/scratch/molpro.cahz51ocFS/
 Global scratch directory       : /home/jovyan/scratch/molpro.cahz51ocFS/
 Wavefunction directory         : /home/jovyan/wfu/
 Main file repository           : /home/jovyan/scratch/molpro.cahz51ocFS/

 id        : cardiff

 Nodes                nprocs
 jupyter-c-2efrancisan    1
 GA implementation: MPI file
 GA implementation (serial work in mppx): MPI file

 Using customized tuning parameters: mindgm=1; mindgv=20; mindgc=4; mindgr=1; noblas=0; minvec=7
 default implementation of scratch files=df  


 Variables initialized (1031), CPU time= 0.00 sec
 
 
 
 geometry={
           15
     C         -3.68308053      0.94452211     -0.01656012
     H         -3.68590013     -0.15545023      0.01932632
     H         -3.15545960      1.24410275     -0.93472391
     H         -4.72649383      1.27817511     -0.10830711
     C         -3.01404275      1.53769362      1.22534673
     H         -3.04848053      2.63830850      1.18144679
     H         -3.58173640      1.25027510      2.12610967
     C         -1.54958284      1.09017006      1.38850510
     H         -1.52589130     -0.01495244      1.41907116
     H         -0.96721377      1.39104970      0.50204330
     C         -0.89999612      1.63188771      2.62799409
     H         -1.38186039      1.36273802      3.57573515
     C          0.18641143      2.40913614      2.65699083
     H          0.60540367      2.77523978      3.59524962
     H          0.70012704      2.70592330      1.73893155
 }
 basis=cc-pVTZ
 angstrom
 
 
 hf; papt;mp3
 
 
 
 {put,xml;noorbitals,nobasis}
 Commands initialized (841), CPU time= 0.01 sec, 704 directives.
 Default parameters read. Elapsed time= 0.08 sec

 Checking input...
 Passed
1


                                         ***  PROGRAM SYSTEM MOLPRO  ***
                                       Copyright, TTI GmbH Stuttgart, 2015
                                    Version 2023.1 linked Mon Jun  5 13:27:10 2023


 **********************************************************************************************************************************
 LABEL *                                                                                                                                                                 
  (16 PROC) 64 bit serial version                                                        DATE: 03-Aug-23          TIME: 16:50:13  
 **********************************************************************************************************************************

 SHA1:             9738a14712571edd23541b6d7c4f3a3d766f8287
 **********************************************************************************************************************************

 Memory per process:       805 MW
 Total memory per node:   1074 MW
 Total GA space:           268 MW

 GA preallocation disabled
 GA check enabled

 Geometry recognized as XYZ


 Variable memory set to 805.3 MW

 SETTING BASIS          =    CC-PVTZ


 Recomputing integrals since basis changed


 Using spherical harmonics

 Library entry C      S cc-pVTZ              selected for orbital group  1
 Library entry C      P cc-pVTZ              selected for orbital group  1
 Library entry C      D cc-pVTZ              selected for orbital group  1
 Library entry C      F cc-pVTZ              selected for orbital group  1
 Library entry H      S cc-pVTZ              selected for orbital group  2
 Library entry H      P cc-pVTZ              selected for orbital group  2
 Library entry H      D cc-pVTZ              selected for orbital group  2


 PROGRAM * SEWARD (Integral evaluation for generally contracted gaussian basis sets)     Author: Roland Lindh, 1990

 Geometry written to block  1 of record 700


 Point group  C1  



 ATOMIC COORDINATES

 NR  ATOM    CHARGE       X              Y              Z

   1  C       6.00   -6.960013497    1.784888107   -0.031294091
   2  H       1.00   -6.965341768   -0.293758361    0.036521452
   3  H       1.00   -5.962954441    2.351013468   -1.766372192
   4  H       1.00   -8.931778868    2.415400897   -0.204670775
   5  C       6.00   -5.695715325    2.905819805    2.315569727
   6  H       1.00   -5.760793298    4.985680497    2.232610864
   7  H       1.00   -6.768500847    2.362677519    4.017764987
   8  C       6.00   -2.928287175    2.060122843    2.623894362
   9  H       1.00   -2.883516653   -0.028256016    2.681655844
  10  H       1.00   -1.827769129    2.628702959    0.948724340
  11  C       6.00   -1.700746180    3.083820838    4.966189087
  12  H       1.00   -2.611337680    2.575201637    6.757160128
  13  C       6.00    0.352266549    4.552607502    5.020984984
  14  H       1.00    1.144047131    5.244443114    6.794037131
  15  H       1.00    1.323048358    5.113453951    3.286104379

 Bond lengths in Bohr (Angstrom)

 1-2  2.079759235  1-3  2.079692453  1-4  2.077369619  1-5  2.891834629  5-6  2.082531588
     ( 1.100561191)     ( 1.100525852)     ( 1.099296661)     ( 1.530292984)     ( 1.102028257)

  5- 7  2.084068382   5- 8  2.910141921   8- 9  2.089657160   8-10  2.083414966   8-11  2.835693753
       ( 1.102841494)       ( 1.539980785)       ( 1.105798948)       ( 1.102495721)       ( 1.500584511)

 11-12  2.072546173  11-13  2.524915468  13-14  2.061375007  13-15  2.065617771
       ( 1.096744203)       ( 1.336127725)       ( 1.090832677)       ( 1.093077851)

 Bond angles

  1-5-6  109.94584458   1-5-7  109.68056227   1-5-8  112.89816040   2-1-3  107.48780124

  2-1-4  107.67649762   2-1-5  111.22736239   3-1-4  107.62601359   3-1-5  111.22011373

  4- 1- 5  111.41090819   5- 8- 9  108.28405905   5- 8-10  109.74459489   5- 8-11  113.22013171

  6- 5- 7  106.06529287   6- 5- 8  108.91518359   7- 5- 8  109.10139092   8-11-12  115.78507688

  8-11-13  125.44430423   9- 8-10  106.47810176   9- 8-11  109.18849067  10- 8-11  109.69199066

 11-13-14  121.75017514  11-13-15  121.45659305  12-11-13  118.76692411  14-13-15  116.79294029

 NUCLEAR CHARGE:                   40
 NUMBER OF PRIMITIVE AOS:         405
 NUMBER OF SYMMETRY AOS:          370
 NUMBER OF CONTRACTIONS:          290   (  290A   )
 NUMBER OF INNER CORE ORBITALS:     0   (    0A   )
 NUMBER OF OUTER CORE ORBITALS:     5   (    5A   )
 NUMBER OF VALENCE ORBITALS:       30   (   30A   )


 NUCLEAR REPULSION ENERGY  169.24471204


 Eigenvalues of metric

         1 0.385E-03 0.508E-03 0.901E-03 0.105E-02 0.112E-02 0.118E-02 0.122E-02 0.132E-02


 Contracted 2-electron integrals neglected if value below      1.0D-11
 AO integral compression algorithm  1   Integral accuracy      1.0D-11

     2730.754 MB (compressed) written to integral file ( 38.5%)


 NUMBER OF SORTED TWO-ELECTRON INTEGRALS:  890230110.     BUFFER LENGTH:  32768
 NUMBER OF SEGMENTS:  56  SEGMENT LENGTH:   15999984      RECORD LENGTH: 262144

 Memory used in sort:      16.29 MW

 SORT1 READ   885570944. AND WROTE   697003299. INTEGRALS IN   4017 RECORDS. CPU TIME:    11.88 SEC, REAL TIME:    18.84 SEC
 SORT2 READ   697003299. AND WROTE   890230110. INTEGRALS IN  10417 RECORDS. CPU TIME:    12.12 SEC, REAL TIME:    18.12 SEC

 FILE SIZES:   FILE 1:  2764.1 MBYTE,  FILE 4:  8424.3 MBYTE,   TOTAL:  11188.4 MBYTE

 OPERATOR DM      FOR CENTER  0  COORDINATES:    0.000000    0.000000    0.000000


 **********************************************************************************************************************************
 DATASETS  * FILE   NREC   LENGTH (MB)   RECORD NAMES
              1      19     2433.85       500      610      700      900      950      970     1000      129      960     1100   
                                          VAR    BASINP    GEOM    SYMINP    ZMAT    AOBASIS   BASIS     P2S    ABASIS      S 
                                         1400     1410     1200     1210     1080     1600     1650     1300     1700   
                                           T        V       H0       H01     AOSYM     SMH    MOLCAS    ERIS     OPER   

 PROGRAMS   *        TOTAL       INT
 CPU TIMES  *        70.02     69.88
 REAL TIME  *        96.73 SEC
 DISK USED  *        10.42 GB
 **********************************************************************************************************************************


 Program * Restricted Hartree-Fock

 Orbital guess generated from atomic densities. Full valence occupancy:   35

 Initial occupancy:  20

 NELEC=   40   SYM=1   MS2= 0   THRE=1.0D-08   THRD=3.2D-06   THRG=3.2D-06  HFMA2=F  DIIS_START=2   DIIS_MAX=10   DIIS_INCORE=F

 Level shifts:    0.00 (CLOSED)    0.00 (OPEN)    0.30 (GAP_MIN)

 ITER           ETOT              DE          GRAD        DDIFF     DIIS  NEXP   TIME(IT)  TIME(TOT)  DIAG
   1     -195.14423080    -195.14423080     0.00D+00     0.42D-01     0     0       9.49     18.69    start
   2     -195.20253571      -0.05830491     0.27D-02     0.37D-02     1     0       9.75     28.44    diag
   3     -195.20906120      -0.00652549     0.97D-03     0.11D-02     2     0       9.58     38.02    diag
   4     -195.21007235      -0.00101114     0.32D-03     0.43D-03     3     0       9.67     47.69    diag
   5     -195.21009481      -0.00002246     0.47D-04     0.89D-04     4     0       9.75     57.44    diag
   6     -195.21009739      -0.00000258     0.19D-04     0.26D-04     5     0       9.64     67.08    diag
   7     -195.21009753      -0.00000013     0.32D-05     0.70D-05     6     0       9.77     76.85    diag
   8     -195.21009754      -0.00000001     0.13D-05     0.18D-05     7     0       9.62     86.47    fixocc
   9     -195.21009754      -0.00000000     0.37D-06     0.75D-06     8     0       9.56     96.03    diag
  10     -195.21009754      -0.00000000     0.16D-06     0.23D-06     0     0       9.56    105.59    diag/orth

 Final occupancy:  20

 !RHF STATE 1.1 Energy               -195.210097543280
  RHF One-electron energy            -597.044688278035
  RHF Two-electron energy             232.589878694881
  RHF Kinetic energy                  194.798061530835
  RHF Nuclear energy                  169.244712039874
  RHF Virial quotient                  -1.002115195650

 !RHF STATE 1.1 Dipole moment          -0.13615826    -0.06241638    -0.05524517
 Dipole moment /Debye                  -0.34607978    -0.15864660    -0.14041921

 Orbital energies:

           1.1          2.1          3.1          4.1          5.1          6.1          7.1          8.1          9.1         10.1
    -11.232002   -11.226165   -11.224119   -11.218941   -11.216290    -1.084336    -1.018927    -0.920036    -0.809127    -0.752499

          11.1         12.1         13.1         14.1         15.1         16.1         17.1         18.1         19.1         20.1
     -0.645673    -0.612319    -0.588040    -0.563840    -0.535396    -0.508271    -0.481183    -0.470376    -0.468429    -0.356492

          21.1         22.1
      0.142769     0.161357


 HOMO     20.1    -0.356492 =      -9.7006eV
 LUMO     21.1     0.142769 =       3.8849eV
 LUMO-HOMO         0.499261 =      13.5856eV

 Orbitals saved in record  2100.2


 **********************************************************************************************************************************
 DATASETS  * FILE   NREC   LENGTH (MB)   RECORD NAMES
              1      19     2433.85       500      610      700      900      950      970     1000      129      960     1100   
                                          VAR    BASINP    GEOM    SYMINP    ZMAT    AOBASIS   BASIS     P2S    ABASIS      S 
                                         1400     1410     1200     1210     1080     1600     1650     1300     1700   
                                           T        V       H0       H01     AOSYM     SMH    MOLCAS    ERIS     OPER   

              2       4        1.94       700     1000      520     2100   
                                         GEOM     BASIS   MCVARS     RHF  

 PROGRAMS   *        TOTAL    HF-SCF       INT
 CPU TIMES  *       175.62    105.60     69.88
 REAL TIME  *       211.27 SEC
 DISK USED  *        10.42 GB
 **********************************************************************************************************************************


 PROGRAM * PAPT (Closed-shell)     Authors: C. Hampel, H.-J. Werner, 1991, P.J. Knowles, 2021


 Convergence thresholds:  THRVAR = 1.00D-08  THRDEN = 1.00D-06

 Number of core orbitals:           5 (   5 )
 Number of closed-shell orbitals:  15 (  15 )
 Number of external orbitals:     270 ( 270 )

 Molecular orbitals read from record     2100.2  Type=RHF/CANONICAL  

 Number of N-1 electron functions:              15
 Number of N-2 electron functions:             120
 Number of singly external CSFs:              4050
 Number of doubly external CSFs:           8203275
 Total number of CSFs:                     8207326

 Length of J-op  integral file:               0.00 MB
 Length of K-op  integral file:               5.84 MB

 Integral transformation finished. Total CPU:  26.59 sec, npass=  1  Memory used:  18.41 MW

 Reference energy:                   -195.21009754

                        CORR.ENERGY   TOTAL ENERGY   ENERGY CHANGE
 MP2:                   -0.85894913  -196.06904667    -0.85894913

 SCS-MP2 correlation energy:           -0.86678221   (PS=  1.200000  PT=  0.333333)
 SCS-MP2 total energy:               -196.07687975
 Iteration:   1     0.2368D+00
 Iteration:   2     0.3209D+00
 Iteration:   3     0.8819D-01
 Iteration:   4     0.9631D-01
 Iteration:   5     0.6493D-01
 Iteration:   6     0.4107D-01
 Iteration:   7     0.1162D+00
 Iteration:   8     0.3405D-01
 Iteration:   9     0.4557D+00
 Iteration:  10     0.1588D-01
 Iteration:  11     0.1648D-01
 Iteration:  12     0.1235D-01
 Iteration:  13     0.3660D-02
 Iteration:  14     0.5925D-02
 Iteration:  15     0.1503D-02
 Iteration:  16     0.7131D-03
 Iteration:  17     0.5744D-02
 Iteration:  18     0.2124D-03
 Iteration:  19     0.4488D-03
 Iteration:  20     0.1072D-03
 Iteration:  21     0.9165D-04
 PAPT operator written to  7000.1
 PAPT orbitals and eigenvalues written to  7000.2

 MP3(D):                -0.90987509  -196.11997263    -0.05092596



 RESULTS
 =======

  Reference energy                   -195.210097543280
  MP3 singlet pair energy              -0.637361106075
  MP3 triplet pair energy              -0.272513980125
  MP3 correlation energy               -0.909875086200

 !MP3 total energy                   -196.119972629480

 Timing summary (sec):

 STEP                 CPU(USER)    SYS     CPU(TOT)    WALL
 Transformation         27.54      1.09     28.63     29.10
 CCSD iterations       330.23      1.47    331.70    157.62

 Program statistics:

 Available memory in ccsd:               805305448
 Min. memory needed in ccsd:              20248374
 Max. memory used in ccsd:                27738924
 Max. memory used in cckext:              20978367 ( 1 integral passes)



 **********************************************************************************************************************************
 DATASETS  * FILE   NREC   LENGTH (MB)   RECORD NAMES
              1      21     2551.09       500      610      700      900      950      970     1000      129      960     1100   
                                          VAR    BASINP    GEOM    SYMINP    ZMAT    AOBASIS   BASIS     P2S    ABASIS      S 
                                         1400     1410     1200     1210     1080     1600     1650     1300     1700     1380   
                                           T        V       H0       H01     AOSYM     SMH    MOLCAS    ERIS     OPER     JKOP   
                                         7000   
                                        PAPT AO    

              2       5        3.97       700     1000      520     2100     7000   
                                         GEOM     BASIS   MCVARS     RHF     PAPT   

 PROGRAMS   *        TOTAL      PAPT    HF-SCF       INT
 CPU TIMES  *       357.49    181.87    105.60     69.88
 REAL TIME  *       398.07 SEC
 DISK USED  *        10.42 GB
 **********************************************************************************************************************************


 PROGRAM * MP3 (Closed-shell)     Authors: C. Hampel, H.-J. Werner, 1991, M. Deegan, P.J. Knowles, 1992


 Convergence thresholds:  THRVAR = 1.00D-08  THRDEN = 1.00D-06

 Number of core orbitals:           5 (   5 )
 Number of closed-shell orbitals:  15 (  15 )
 Number of external orbitals:     270 ( 270 )

 Molecular orbitals read from record     7000.2  Type=PAPT/CANONICAL (state 1.1)

 Number of N-1 electron functions:              15
 Number of N-2 electron functions:             120
 Number of singly external CSFs:              4050
 Number of doubly external CSFs:           8203275
 Total number of CSFs:                     8207326

 Length of J-op  integral file:               0.00 MB
 Length of K-op  integral file:               5.84 MB

 Integral transformation finished. Total CPU:  25.01 sec, npass=  1  Memory used:  18.41 MW
 Orbital energies read from record       7000.2  Type=PAPT/CANONICAL (state 1.1)

 Reference energy:                   -195.21009754

                        CORR.ENERGY   TOTAL ENERGY   ENERGY CHANGE
 MP2:                   -0.92056780  -196.13066534    -0.92056780

 SCS-MP2 correlation energy:           -0.93338106   (PS=  1.200000  PT=  0.333333)
 SCS-MP2 total energy:               -196.14347860

 MP3(D):                -0.92104098  -196.13113853    -0.00047319



 RESULTS
 =======

  Reference energy                   -195.210097543280
  MP3 singlet pair energy              -0.650468581974
  MP3 triplet pair energy              -0.270572402887
  MP3 correlation energy               -0.921040984861

 !MP3 total energy                   -196.131138528141

 Timing summary (sec):

 STEP                 CPU(USER)    SYS     CPU(TOT)    WALL
 Transformation         35.59      2.12     37.71     38.69
 CCSD iterations       448.33      1.22    449.55     92.76

 Program statistics:

 Available memory in ccsd:               805305448
 Min. memory needed in ccsd:              20248374
 Max. memory used in ccsd:                27738924
 Max. memory used in cckext:              20978367 ( 1 integral passes)



 **********************************************************************************************************************************
 DATASETS  * FILE   NREC   LENGTH (MB)   RECORD NAMES
              1      21     2551.09       500      610      700      900      950      970     1000      129      960     1100   
                                          VAR    BASINP    GEOM    SYMINP    ZMAT    AOBASIS   BASIS     P2S    ABASIS      S 
                                         1400     1410     1200     1210     1080     1600     1650     1300     1700     1380   
                                           T        V       H0       H01     AOSYM     SMH    MOLCAS    ERIS     OPER     JKOP   
                                         7000   
                                        PAPT AO    

              2       5        3.97       700     1000      520     2100     7000   
                                         GEOM     BASIS   MCVARS     RHF     PAPT   

 PROGRAMS   *        TOTAL       MP3      PAPT    HF-SCF       INT
 CPU TIMES  *       483.63    126.14    181.87    105.60     69.88
 REAL TIME  *       529.59 SEC
 DISK USED  *        10.42 GB
 **********************************************************************************************************************************

 Dump information in style XML to xml output                                                                      

 Orbitals will not be exported.

 **********************************************************************************************************************************

 MP3/cc-pVTZ energy=   -196.131138528141

             MP3            PAPT          HF-SCF
   -196.13113853   -196.11997263   -195.21009754
 **********************************************************************************************************************************
 Molpro calculation terminated
