
 Working directory              : /home/jovyan/scratch/molpro.LdsF3qzOoX/
 Global scratch directory       : /home/jovyan/scratch/molpro.LdsF3qzOoX/
 Wavefunction directory         : /home/jovyan/wfu/
 Main file repository           : /home/jovyan/scratch/molpro.LdsF3qzOoX/

 id        : cardiff

 Nodes                nprocs
 jupyter-c-2efrancisan    1
 GA implementation: MPI file
 GA implementation (serial work in mppx): MPI file

 Using customized tuning parameters: mindgm=1; mindgv=20; mindgc=4; mindgr=1; noblas=0; minvec=7
 default implementation of scratch files=df  


 Variables initialized (1031), CPU time= 0.01 sec
 
 
 
 geometry={
 6
  C 0.000000 0.416575 0.000000
  H -0.263416 1.473336 0.000000
  O -1.110471 -0.343273 0.000000
  H 1.876501 0.630870 0.000000
  H -0.825348 -1.269969 0.000000
  N 1.156576 -0.083929 0.000000
 }
 basis=cc-pVTZ
 angstrom
 
 
 hf; papt;mp3
 
 
 
 {put,xml;noorbitals,nobasis}
 Commands initialized (841), CPU time= 0.00 sec, 704 directives.
 Default parameters read. Elapsed time= 0.09 sec

 Checking input...
 Passed
1


                                         ***  PROGRAM SYSTEM MOLPRO  ***
                                       Copyright, TTI GmbH Stuttgart, 2015
                                    Version 2023.1 linked Mon Jun  5 13:27:10 2023


 **********************************************************************************************************************************
 LABEL *                                                                                                                                                                 
  (16 PROC) 64 bit serial version                                                        DATE: 02-Aug-23          TIME: 15:44:25  
 **********************************************************************************************************************************

 SHA1:             9738a14712571edd23541b6d7c4f3a3d766f8287
 **********************************************************************************************************************************

 Memory per process:       805 MW
 Total memory per node:   1074 MW
 Total GA space:           268 MW

 GA preallocation disabled
 GA check enabled

 Geometry recognized as XYZ


 Variable memory set to 805.3 MW

 SETTING BASIS          =    CC-PVTZ


 Recomputing integrals since basis changed


 Using spherical harmonics

 Library entry C      S cc-pVTZ              selected for orbital group  1
 Library entry C      P cc-pVTZ              selected for orbital group  1
 Library entry C      D cc-pVTZ              selected for orbital group  1
 Library entry C      F cc-pVTZ              selected for orbital group  1
 Library entry H      S cc-pVTZ              selected for orbital group  2
 Library entry H      P cc-pVTZ              selected for orbital group  2
 Library entry H      D cc-pVTZ              selected for orbital group  2
 Library entry O      S cc-pVTZ              selected for orbital group  3
 Library entry O      P cc-pVTZ              selected for orbital group  3
 Library entry O      D cc-pVTZ              selected for orbital group  3
 Library entry O      F cc-pVTZ              selected for orbital group  3
 Library entry N      S cc-pVTZ              selected for orbital group  5
 Library entry N      P cc-pVTZ              selected for orbital group  5
 Library entry N      D cc-pVTZ              selected for orbital group  5
 Library entry N      F cc-pVTZ              selected for orbital group  5


 PROGRAM * SEWARD (Integral evaluation for generally contracted gaussian basis sets)     Author: Roland Lindh, 1990

 Geometry written to block  1 of record 700


 Point group  Cs  



 ATOMIC COORDINATES

 NR  ATOM    CHARGE       X              Y              Z

   1  C       6.00    0.000000000    0.787212660    0.000000000
   2  H       1.00   -0.497784097    2.784201530    0.000000000
   3  O       8.00   -2.098486059   -0.648691956    0.000000000
   4  H       1.00    3.546072963    1.192171520    0.000000000
   5  H       1.00   -1.559681678   -2.399893597    0.000000000
   6  N       7.00    2.185611882   -0.158602824    0.000000000

 Bond lengths in Bohr (Angstrom)

 1-2  2.058094641  1-3  2.542728025  1-6  2.381484040  3-5  1.832216512  4-6  1.917145190
     ( 1.089096782)     ( 1.345553724)     ( 1.260227082)     ( 0.969567224)     ( 1.014509545)

 Bond angles

  1-3-5  107.28024880   1-6-4  111.80433602   2-1-3  110.38544653   2-1-6  127.39709766

  3-1-6  122.21745581

 NUCLEAR CHARGE:                   24
 NUMBER OF PRIMITIVE AOS:         192
 NUMBER OF SYMMETRY AOS:          174
 NUMBER OF CONTRACTIONS:          132   (   90A'  +   42A"  )
 NUMBER OF INNER CORE ORBITALS:     0   (    0A'  +    0A"  )
 NUMBER OF OUTER CORE ORBITALS:     3   (    3A'  +    0A"  )
 NUMBER OF VALENCE ORBITALS:       15   (   12A'  +    3A"  )


 NUCLEAR REPULSION ENERGY   71.20546877


 Eigenvalues of metric

         1 0.130E-02 0.140E-02 0.212E-02 0.226E-02 0.283E-02 0.384E-02 0.507E-02 0.642E-02
         2 0.239E-01 0.348E-01 0.425E-01 0.638E-01 0.752E-01 0.890E-01 0.106E+00 0.127E+00


 Contracted 2-electron integrals neglected if value below      1.0D-11
 AO integral compression algorithm  1   Integral accuracy      1.0D-11

     93.323 MB (compressed) written to integral file ( 51.1%)


 NUMBER OF SORTED TWO-ELECTRON INTEGRALS:   19888071.     BUFFER LENGTH:  32768
 NUMBER OF SEGMENTS:   2  SEGMENT LENGTH:   15993726      RECORD LENGTH: 524288

 Memory used in sort:      16.55 MW

 SORT1 READ    22838390. AND WROTE    19313197. INTEGRALS IN     56 RECORDS. CPU TIME:     0.32 SEC, REAL TIME:     0.91 SEC
 SORT2 READ    19313197. AND WROTE    19888071. INTEGRALS IN    356 RECORDS. CPU TIME:     0.49 SEC, REAL TIME:     0.60 SEC

 FILE SIZES:   FILE 1:   123.9 MBYTE,  FILE 4:   234.9 MBYTE,   TOTAL:    358.8 MBYTE

 OPERATOR DM      FOR CENTER  0  COORDINATES:    0.000000    0.000000    0.000000


 **********************************************************************************************************************************
 DATASETS  * FILE   NREC   LENGTH (MB)   RECORD NAMES
              1      19      107.85       500      610      700      900      950      970     1000      129      960     1100   
                                          VAR    BASINP    GEOM    SYMINP    ZMAT    AOBASIS   BASIS     P2S    ABASIS      S 
                                         1400     1410     1200     1210     1080     1600     1650     1300     1700   
                                           T        V       H0       H01     AOSYM     SMH    MOLCAS    ERIS     OPER   

 PROGRAMS   *        TOTAL       INT
 CPU TIMES  *         4.37      4.23
 REAL TIME  *         6.80 SEC
 DISK USED  *       342.66 MB
 **********************************************************************************************************************************


 Program * Restricted Hartree-Fock

 Orbital guess generated from atomic densities. Full valence occupancy:   15   3

 Initial occupancy:  10   2

 NELEC=   24   SYM=1   MS2= 0   THRE=1.0D-08   THRD=3.2D-06   THRG=3.2D-06  HFMA2=F  DIIS_START=2   DIIS_MAX=10   DIIS_INCORE=F

 Level shifts:    0.00 (CLOSED)    0.00 (OPEN)    0.30 (GAP_MIN)

 ITER           ETOT              DE          GRAD        DDIFF     DIIS  NEXP   TIME(IT)  TIME(TOT)  DIAG
   1     -168.92720368    -168.92720368     0.00D+00     0.92D-01     0     0       0.16      0.31    start
   2     -168.96775823      -0.04055455     0.82D-02     0.12D-01     1     0       0.15      0.46    diag
   3     -168.98084537      -0.01308713     0.45D-02     0.43D-02     2     0       0.16      0.62    diag
   4     -168.98170426      -0.00085890     0.83D-03     0.11D-02     3     0       0.15      0.77    diag
   5     -168.98179096      -0.00008670     0.26D-03     0.34D-03     4     0       0.15      0.92    diag
   6     -168.98180817      -0.00001720     0.10D-03     0.14D-03     5     0       0.16      1.08    diag
   7     -168.98181193      -0.00000376     0.41D-04     0.78D-04     6     0       0.15      1.23    diag
   8     -168.98181231      -0.00000038     0.12D-04     0.30D-04     7     0       0.15      1.38    fixocc
   9     -168.98181234      -0.00000002     0.31D-05     0.69D-05     8     0       0.16      1.54    diag
  10     -168.98181234      -0.00000000     0.11D-05     0.24D-05     9     0       0.15      1.69    diag/orth
  11     -168.98181234      -0.00000000     0.28D-06     0.41D-06     0     0       0.16      1.85    diag

 Final occupancy:  10   2

 !RHF STATE 1.1 Energy               -168.981812338957
  RHF One-electron energy            -371.517062619732
  RHF Two-electron energy             131.329781508641
  RHF Kinetic energy                  168.729933107211
  RHF Nuclear energy                   71.205468772134
  RHF Virial quotient                  -1.001492795185

 !RHF STATE 1.1 Dipole moment          -0.00780755     0.46480577     0.00000000
 Dipole moment /Debye                  -0.01984482     1.18141843     0.00000000

 Orbital energies:

           1.1          2.1          3.1          4.1          5.1          6.1          7.1          8.1          9.1         10.1
    -20.599852   -15.543619   -11.344068    -1.427856    -1.197376    -0.864424    -0.733219    -0.670538    -0.582445    -0.446878

          11.1         12.1
      0.151434     0.164160

           1.2          2.2          3.2          4.2
     -0.600949    -0.417545     0.178032     0.440611


 HOMO      2.2    -0.417545 =     -11.3620eV
 LUMO     11.1     0.151434 =       4.1207eV
 LUMO-HOMO         0.568979 =      15.4827eV

 Orbitals saved in record  2100.2


 **********************************************************************************************************************************
 DATASETS  * FILE   NREC   LENGTH (MB)   RECORD NAMES
              1      19      107.85       500      610      700      900      950      970     1000      129      960     1100   
                                          VAR    BASINP    GEOM    SYMINP    ZMAT    AOBASIS   BASIS     P2S    ABASIS      S 
                                         1400     1410     1200     1210     1080     1600     1650     1300     1700   
                                           T        V       H0       H01     AOSYM     SMH    MOLCAS    ERIS     OPER   

              2       4        0.63       700     1000      520     2100   
                                         GEOM     BASIS   MCVARS     RHF  

 PROGRAMS   *        TOTAL    HF-SCF       INT
 CPU TIMES  *         6.22      1.85      4.23
 REAL TIME  *         9.01 SEC
 DISK USED  *       342.66 MB
 **********************************************************************************************************************************


 PROGRAM * PAPT (Closed-shell)     Authors: C. Hampel, H.-J. Werner, 1991, P.J. Knowles, 2021


 Convergence thresholds:  THRVAR = 1.00D-08  THRDEN = 1.00D-06

 Number of core orbitals:           3 (   3   0 )
 Number of closed-shell orbitals:   9 (   7   2 )
 Number of external orbitals:     120 (  80  40 )

 Molecular orbitals read from record     2100.2  Type=RHF/CANONICAL  

 Number of N-1 electron functions:               9
 Number of N-2 electron functions:              45
 Number of singly external CSFs:               640
 Number of doubly external CSFs:            302140
 Total number of CSFs:                      302781

 Length of J-op  integral file:               0.00 MB
 Length of K-op  integral file:               0.74 MB

 Integral transformation finished. Total CPU:   0.28 sec, npass=  1  Memory used:   0.58 MW

 Reference energy:                   -168.98181234

                        CORR.ENERGY   TOTAL ENERGY   ENERGY CHANGE
 MP2:                   -0.60530294  -169.58711528    -0.60530294

 SCS-MP2 correlation energy:           -0.59558766   (PS=  1.200000  PT=  0.333333)
 SCS-MP2 total energy:               -169.57740000
 Iteration:   1     0.2532D+00
 Iteration:   2     0.3550D+00
 Iteration:   3     0.9089D-01
 Iteration:   4     0.8097D-01
 Iteration:   5     0.1171D+00
 Iteration:   6     0.3291D-01
 Iteration:   7     0.1002D+00
 Iteration:   8     0.1390D-01
 Iteration:   9     0.1022D-01
 Iteration:  10     0.9582D-02
 Iteration:  11     0.2577D-02
 Iteration:  12     0.8794D-02
 Iteration:  13     0.1095D-02
 Iteration:  14     0.7057D-03
 Iteration:  15     0.6472D-03
 Iteration:  16     0.2315D-03
 Iteration:  17     0.8980D-03
 Iteration:  18     0.7296D-04
 PAPT operator written to  7000.1
 PAPT orbitals and eigenvalues written to  7000.2

 MP3(D):                -0.61325555  -169.59506789    -0.00795262



 RESULTS
 =======

  Reference energy                   -168.981812338957
  MP3 singlet pair energy              -0.406890246211
  MP3 triplet pair energy              -0.206365306792
  MP3 correlation energy               -0.613255553003

 !MP3 total energy                   -169.595067891960

 Timing summary (sec):

 STEP                 CPU(USER)    SYS     CPU(TOT)    WALL
 Transformation          0.31      0.04      0.35      0.44
 CCSD iterations         8.14      0.05      8.19      1.90

 Program statistics:

 Available memory in ccsd:               805306034
 Min. memory needed in ccsd:                900943
 Max. memory used in ccsd:                 1155015
 Max. memory used in cckext:               1258241 ( 1 integral passes)



 **********************************************************************************************************************************
 DATASETS  * FILE   NREC   LENGTH (MB)   RECORD NAMES
              1      21      112.78       500      610      700      900      950      970     1000      129      960     1100   
                                          VAR    BASINP    GEOM    SYMINP    ZMAT    AOBASIS   BASIS     P2S    ABASIS      S 
                                         1400     1410     1200     1210     1080     1600     1650     1300     1700     1380   
                                           T        V       H0       H01     AOSYM     SMH    MOLCAS    ERIS     OPER     JKOP   
                                         7000   
                                        PAPT AO    

              2       5        0.96       700     1000      520     2100     7000   
                                         GEOM     BASIS   MCVARS     RHF     PAPT   

 PROGRAMS   *        TOTAL      PAPT    HF-SCF       INT
 CPU TIMES  *         8.16      1.94      1.85      4.23
 REAL TIME  *        11.41 SEC
 DISK USED  *       342.66 MB
 **********************************************************************************************************************************


 PROGRAM * MP3 (Closed-shell)     Authors: C. Hampel, H.-J. Werner, 1991, M. Deegan, P.J. Knowles, 1992


 Convergence thresholds:  THRVAR = 1.00D-08  THRDEN = 1.00D-06

 Number of core orbitals:           3 (   3   0 )
 Number of closed-shell orbitals:   9 (   7   2 )
 Number of external orbitals:     120 (  80  40 )

 Molecular orbitals read from record     7000.2  Type=PAPT/CANONICAL (state 1.1)

 Number of N-1 electron functions:               9
 Number of N-2 electron functions:              45
 Number of singly external CSFs:               640
 Number of doubly external CSFs:            302140
 Total number of CSFs:                      302781

 Length of J-op  integral file:               0.00 MB
 Length of K-op  integral file:               0.74 MB

 Integral transformation finished. Total CPU:   0.29 sec, npass=  1  Memory used:   0.58 MW
 Orbital energies read from record       7000.2  Type=PAPT/CANONICAL (state 1.1)

 Reference energy:                   -168.98181234

                        CORR.ENERGY   TOTAL ENERGY   ENERGY CHANGE
 MP2:                   -0.61785271  -169.59966505    -0.61785271

 SCS-MP2 correlation energy:           -0.61050107   (PS=  1.200000  PT=  0.333333)
 SCS-MP2 total energy:               -169.59231341

 MP3(D):                -0.61801877  -169.59983111    -0.00016606



 RESULTS
 =======

  Reference energy                   -168.981812338958
  MP3 singlet pair energy              -0.410847146601
  MP3 triplet pair energy              -0.207171625678
  MP3 correlation energy               -0.618018772278

 !MP3 total energy                   -169.599831111236

 Timing summary (sec):

 STEP                 CPU(USER)    SYS     CPU(TOT)    WALL
 Transformation          0.47      0.05      0.52      0.61
 CCSD iterations         9.11      0.04      9.15      0.66

 Program statistics:

 Available memory in ccsd:               805306034
 Min. memory needed in ccsd:                900943
 Max. memory used in ccsd:                 1155015
 Max. memory used in cckext:               1258241 ( 1 integral passes)



 **********************************************************************************************************************************
 DATASETS  * FILE   NREC   LENGTH (MB)   RECORD NAMES
              1      21      112.78       500      610      700      900      950      970     1000      129      960     1100   
                                          VAR    BASINP    GEOM    SYMINP    ZMAT    AOBASIS   BASIS     P2S    ABASIS      S 
                                         1400     1410     1200     1210     1080     1600     1650     1300     1700     1380   
                                           T        V       H0       H01     AOSYM     SMH    MOLCAS    ERIS     OPER     JKOP   
                                         7000   
                                        PAPT AO    

              2       5        0.96       700     1000      520     2100     7000   
                                         GEOM     BASIS   MCVARS     RHF     PAPT   

 PROGRAMS   *        TOTAL       MP3      PAPT    HF-SCF       INT
 CPU TIMES  *         9.28      1.12      1.94      1.85      4.23
 REAL TIME  *        12.77 SEC
 DISK USED  *       342.66 MB
 **********************************************************************************************************************************

 Dump information in style XML to xml output                                                                      

 Orbitals will not be exported.

 **********************************************************************************************************************************

 MP3/cc-pVTZ energy=   -169.599831111236

             MP3            PAPT          HF-SCF
   -169.59983111   -169.59506789   -168.98181234
 **********************************************************************************************************************************
 Molpro calculation terminated
