
 Working directory              : /home/jovyan/scratch/molpro.YMkvRWXTRv/
 Global scratch directory       : /home/jovyan/scratch/molpro.YMkvRWXTRv/
 Wavefunction directory         : /home/jovyan/wfu/
 Main file repository           : /home/jovyan/scratch/molpro.YMkvRWXTRv/

 id        : cardiff

 Nodes                nprocs
 jupyter-c-2efrancisan    1
 GA implementation: MPI file
 GA implementation (serial work in mppx): MPI file

 Using customized tuning parameters: mindgm=1; mindgv=20; mindgc=4; mindgr=1; noblas=0; minvec=7
 default implementation of scratch files=df  


 Variables initialized (1031), CPU time= 0.01 sec
 
 
 
 geometry={
 10
  C     0.3094552    1.4885766    0.4289354
  C     0.0086953    0.7307683   -0.6178885
  C    -0.0086953   -0.7307683   -0.6178885
  C    -0.3094552   -1.4885766    0.4289354
  H    -0.2198754    1.2121312   -1.5596547
  H     0.2918854    2.5648378    0.3671684
  H     0.5938825    1.0525743    1.3749643
  H     0.2198754   -1.2121312   -1.5596547
  H    -0.5938825   -1.0525743    1.3749643
  H    -0.2918854   -2.5648378    0.3671684
 }
 basis=cc-pVDZ
 angstrom
 
 
 hf; papt;mp4
 
 
 
 {put,xml;noorbitals,nobasis}
 Commands initialized (841), CPU time= 0.01 sec, 704 directives.
 Default parameters read. Elapsed time= 0.08 sec

 Checking input...
 Passed
1


                                         ***  PROGRAM SYSTEM MOLPRO  ***
                                       Copyright, TTI GmbH Stuttgart, 2015
                                    Version 2023.1 linked Mon Jun  5 13:27:10 2023


 **********************************************************************************************************************************
 LABEL *                                                                                                                                                                 
  (16 PROC) 64 bit serial version                                                        DATE: 03-Aug-23          TIME: 22:34:08  
 **********************************************************************************************************************************

 SHA1:             9738a14712571edd23541b6d7c4f3a3d766f8287
 **********************************************************************************************************************************

 Memory per process:       805 MW
 Total memory per node:   1074 MW
 Total GA space:           268 MW

 GA preallocation disabled
 GA check enabled

 Geometry recognized as XYZ


 Variable memory set to 805.3 MW

 SETTING BASIS          =    CC-PVDZ


 Recomputing integrals since basis changed


 Using spherical harmonics

 Library entry C      S cc-pVDZ              selected for orbital group  1
 Library entry C      P cc-pVDZ              selected for orbital group  1
 Library entry C      D cc-pVDZ              selected for orbital group  1
 Library entry H      S cc-pVDZ              selected for orbital group  2
 Library entry H      P cc-pVDZ              selected for orbital group  2


 PROGRAM * SEWARD (Integral evaluation for generally contracted gaussian basis sets)     Author: Roland Lindh, 1990

 Geometry written to block  1 of record 700


 Point group  C2  



 ATOMIC COORDINATES

 NR  ATOM    CHARGE       X              Y              Z

   1  C       6.00    0.584785576    2.813002090    0.810570431
   2  C       6.00   -0.584785576   -2.813002090    0.810570431
   3  C       6.00    0.016431736    1.380951948   -1.167640041
   4  C       6.00   -0.016431736   -1.380951948   -1.167640041
   5  H       1.00   -0.415504288    2.290595995   -2.947320232
   6  H       1.00    0.415504288   -2.290595995   -2.947320232
   7  H       1.00    0.551583466    4.846840996    0.693847718
   8  H       1.00   -0.551583466   -4.846840996    0.693847718
   9  H       1.00    1.122275275    1.989077153    2.598305958
  10  H       1.00   -1.122275275   -1.989077153    2.598305958

 Bond lengths in Bohr (Angstrom)

 1-3  2.507411089  1-7  2.037456078  1-9  2.040525862  2-4  2.507411089  2-8  2.037456078
     ( 1.326864806)     ( 1.078175325)     ( 1.079799784)     ( 1.326864806)     ( 1.078175325)

  2-10  2.040525862   3- 4  2.762099407   3- 5  2.044818477   4- 6  2.044818477
       ( 1.079799784)       ( 1.461640060)       ( 1.082071339)       ( 1.082071339)

 Bond angles

  1-3-4  125.01448279   1-3-5  118.71549854   2-4-3  125.01448279   2-4-6  118.71549854

  3-1-7  121.41424336   3-1-9  121.35260511   3-4-6  116.25126208   4-2-8  121.41424336

  4- 2-10  121.35260511   4- 3- 5  116.25126208   7- 1- 9  117.22896990   8- 2-10  117.22896990

 NUCLEAR CHARGE:                   30
 NUMBER OF PRIMITIVE AOS:         150
 NUMBER OF SYMMETRY AOS:          146
 NUMBER OF CONTRACTIONS:           86   (   43A   +   43B   )
 NUMBER OF INNER CORE ORBITALS:     0   (    0A   +    0B   )
 NUMBER OF OUTER CORE ORBITALS:     4   (    2A   +    2B   )
 NUMBER OF VALENCE ORBITALS:       22   (   11A   +   11B   )


 NUCLEAR REPULSION ENERGY  105.60425655

 Eigenvalues of metric

         1 0.349E-02 0.146E-01 0.189E-01 0.281E-01 0.355E-01 0.445E-01 0.478E-01 0.655E-01
         2 0.181E-02 0.288E-02 0.139E-01 0.189E-01 0.256E-01 0.319E-01 0.373E-01 0.428E-01


 Contracted 2-electron integrals neglected if value below      1.0D-11
 AO integral compression algorithm  1   Integral accuracy      1.0D-11

     19.661 MB (compressed) written to integral file ( 54.8%)


 NUMBER OF SORTED TWO-ELECTRON INTEGRALS:    3580610.     BUFFER LENGTH:  32768
 NUMBER OF SEGMENTS:   1  SEGMENT LENGTH:    3580610      RECORD LENGTH: 524288

 Memory used in sort:       4.14 MW

 SORT1 READ     4526704. AND WROTE     3537825. INTEGRALS IN     11 RECORDS. CPU TIME:     0.06 SEC, REAL TIME:     0.25 SEC
 SORT2 READ     3537825. AND WROTE     3580610. INTEGRALS IN     75 RECORDS. CPU TIME:     0.12 SEC, REAL TIME:     0.15 SEC

 FILE SIZES:   FILE 1:    50.0 MBYTE,  FILE 4:    46.2 MBYTE,   TOTAL:     96.2 MBYTE

 OPERATOR DM      FOR CENTER  0  COORDINATES:    0.000000    0.000000    0.000000


 **********************************************************************************************************************************
 DATASETS  * FILE   NREC   LENGTH (MB)   RECORD NAMES
              1      19       44.05       500      610      700      900      950      970     1000      129      960     1100   
                                          VAR    BASINP    GEOM    SYMINP    ZMAT    AOBASIS   BASIS     P2S    ABASIS      S 
                                         1400     1410     1200     1210     1080     1600     1650     1300     1700   
                                           T        V       H0       H01     AOSYM     SMH    MOLCAS    ERIS     OPER   

 PROGRAMS   *        TOTAL       INT
 CPU TIMES  *         1.62      1.49
 REAL TIME  *         2.90 SEC
 DISK USED  *        92.23 MB
 **********************************************************************************************************************************


 Program * Restricted Hartree-Fock

 Orbital guess generated from atomic densities. Full valence occupancy:   13  13

 Initial occupancy:   8   7

 NELEC=   30   SYM=1   MS2= 0   THRE=1.0D-08   THRD=3.2D-06   THRG=3.2D-06  HFMA2=F  DIIS_START=2   DIIS_MAX=10   DIIS_INCORE=F

 Level shifts:    0.00 (CLOSED)    0.00 (OPEN)    0.30 (GAP_MIN)

 ITER           ETOT              DE          GRAD        DDIFF     DIIS  NEXP   TIME(IT)  TIME(TOT)  DIAG
   1     -154.88550370    -154.88550370     0.00D+00     0.16D+00     0     0       0.02      0.04    start
   2     -154.92488734      -0.03938364     0.69D-02     0.15D-01     1     0       0.03      0.07    diag
   3     -154.92870110      -0.00381376     0.23D-02     0.50D-02     2     0       0.02      0.09    diag
   4     -154.92920448      -0.00050339     0.71D-03     0.18D-02     3     0       0.02      0.11    diag
   5     -154.92921332      -0.00000883     0.79D-04     0.25D-03     4     0       0.02      0.13    diag
   6     -154.92921406      -0.00000074     0.27D-04     0.58D-04     5     0       0.03      0.16    diag
   7     -154.92921420      -0.00000014     0.11D-04     0.23D-04     6     0       0.02      0.18    diag
   8     -154.92921421      -0.00000002     0.28D-05     0.91D-05     7     0       0.03      0.21    fixocc
   9     -154.92921421      -0.00000000     0.68D-06     0.22D-05     8     0       0.03      0.24    diag
  10     -154.92921421      -0.00000000     0.18D-06     0.36D-06     0     0       0.02      0.26    diag/orth

 Final occupancy:   8   7

 !RHF STATE 1.1 Energy               -154.929214213278
  RHF One-electron energy            -416.609220938082
  RHF Two-electron energy             156.075750170736
  RHF Kinetic energy                  154.840026085929
  RHF Nuclear energy                  105.604256554068
  RHF Virial quotient                  -1.000576001759

 !RHF STATE 1.1 Dipole moment           0.00000000     0.00000000    -0.03898514
 Dipole moment /Debye                   0.00000000     0.00000000    -0.09909035

 Orbital energies:

           1.1          2.1          3.1          4.1          5.1          6.1          7.1          8.1          9.1         10.1
    -11.238583   -11.230176    -1.093203    -0.841426    -0.669301    -0.606746    -0.494013    -0.327899     0.195627     0.213802

           1.2          2.2          3.2          4.2          5.2          6.2          7.2          8.2          9.2
    -11.237808   -11.230174    -0.995327    -0.726617    -0.588703    -0.520363    -0.428521     0.121179     0.229428


 HOMO      8.1    -0.327899 =      -8.9226eV
 LUMO      8.2     0.121179 =       3.2975eV
 LUMO-HOMO         0.449078 =      12.2200eV

 Orbitals saved in record  2100.2


 **********************************************************************************************************************************
 DATASETS  * FILE   NREC   LENGTH (MB)   RECORD NAMES
              1      19       44.05       500      610      700      900      950      970     1000      129      960     1100   
                                          VAR    BASINP    GEOM    SYMINP    ZMAT    AOBASIS   BASIS     P2S    ABASIS      S 
                                         1400     1410     1200     1210     1080     1600     1650     1300     1700   
                                           T        V       H0       H01     AOSYM     SMH    MOLCAS    ERIS     OPER   

              2       4        0.59       700     1000      520     2100   
                                         GEOM     BASIS   MCVARS     RHF  

 PROGRAMS   *        TOTAL    HF-SCF       INT
 CPU TIMES  *         1.88      0.26      1.49
 REAL TIME  *         3.27 SEC
 DISK USED  *        92.23 MB
 **********************************************************************************************************************************


 PROGRAM * PAPT (Closed-shell)     Authors: C. Hampel, H.-J. Werner, 1991, P.J. Knowles, 2021


 Convergence thresholds:  THRVAR = 1.00D-08  THRDEN = 1.00D-06

 Number of core orbitals:           4 (   2   2 )
 Number of closed-shell orbitals:  11 (   6   5 )
 Number of external orbitals:      71 (  35  36 )

 Molecular orbitals read from record     2100.2  Type=RHF/CANONICAL  

 Number of N-1 electron functions:              11
 Number of N-2 electron functions:              66
 Number of singly external CSFs:               390
 Number of doubly external CSFs:            152881
 Total number of CSFs:                      153272

 Length of J-op  integral file:               0.00 MB
 Length of K-op  integral file:               0.32 MB

 Integral transformation finished. Total CPU:   0.07 sec, npass=  1  Memory used:   0.37 MW

 Reference energy:                   -154.92921421

                        CORR.ENERGY   TOTAL ENERGY   ENERGY CHANGE
 MP2:                   -0.53309454  -155.46230875    -0.53309454

 SCS-MP2 correlation energy:           -0.53047151   (PS=  1.200000  PT=  0.333333)
 SCS-MP2 total energy:               -155.45968572
 Iteration:   1     0.2649D+00
 Iteration:   2     0.1631D+01
 Iteration:   3     0.1001D+00
 Iteration:   4     0.2579D+00
 Iteration:   5     0.3130D-01
 Iteration:   6     0.2193D-01
 Iteration:   7     0.3083D-01
 Iteration:   8     0.4597D-02
 Iteration:   9     0.5127D-02
 Iteration:  10     0.1446D-02
 Iteration:  11     0.6772D-03
 Iteration:  12     0.1368D-02
 Iteration:  13     0.1548D-03
 Iteration:  14     0.1814D-03
 Iteration:  15     0.8327D-04
 PAPT operator written to  7000.1
 PAPT orbitals and eigenvalues written to  7000.2

 MP3(D):                -0.57264754  -155.50186176    -0.03955301



 RESULTS
 =======

  Reference energy                   -154.929214213278
  MP3 singlet pair energy              -0.392266741265
  MP3 triplet pair energy              -0.180380802422
  MP3 correlation energy               -0.572647543687

 !MP3 total energy                   -155.501861756965

 Timing summary (sec):

 STEP                 CPU(USER)    SYS     CPU(TOT)    WALL
 Transformation          0.08      0.01      0.09      0.10
 CCSD iterations         2.67      0.03      2.70      0.63

 Program statistics:

 Available memory in ccsd:               805305876
 Min. memory needed in ccsd:                445155
 Max. memory used in ccsd:                  571223
 Max. memory used in cckext:                623772 ( 1 integral passes)



 **********************************************************************************************************************************
 DATASETS  * FILE   NREC   LENGTH (MB)   RECORD NAMES
              1      21       46.93       500      610      700      900      950      970     1000      129      960     1100   
                                          VAR    BASINP    GEOM    SYMINP    ZMAT    AOBASIS   BASIS     P2S    ABASIS      S 
                                         1400     1410     1200     1210     1080     1600     1650     1300     1700     1380   
                                           T        V       H0       H01     AOSYM     SMH    MOLCAS    ERIS     OPER     JKOP   
                                         7000   
                                        PAPT AO    

              2       5        0.78       700     1000      520     2100     7000   
                                         GEOM     BASIS   MCVARS     RHF     PAPT   

 PROGRAMS   *        TOTAL      PAPT    HF-SCF       INT
 CPU TIMES  *         2.55      0.67      0.26      1.49
 REAL TIME  *         4.04 SEC
 DISK USED  *        92.23 MB
 **********************************************************************************************************************************


 PROGRAM * MP4 (Closed-shell)     Authors: C. Hampel, H.-J. Werner, 1991, M. Deegan, P.J. Knowles, 1992


 Convergence thresholds:  THRVAR = 1.00D-08  THRDEN = 1.00D-06

 MP4(T)     terms to be evaluated (factor= 0.000)


 Number of core orbitals:           4 (   2   2 )
 Number of closed-shell orbitals:  11 (   6   5 )
 Number of external orbitals:      71 (  35  36 )

 Molecular orbitals read from record     7000.2  Type=PAPT/CANONICAL (state 1.1)

 Number of N-1 electron functions:              11
 Number of N-2 electron functions:              66
 Number of singly external CSFs:               390
 Number of doubly external CSFs:            152881
 Total number of CSFs:                      153272

 Length of J-op  integral file:               0.00 MB
 Length of K-op  integral file:               0.32 MB

 Memory could be reduced to 2.79 Mwords without degradation in triples

 Integral transformation finished. Total CPU:   0.16 sec, npass=  1  Memory used:   1.76 MW
 Orbital energies read from record       7000.2  Type=PAPT/CANONICAL (state 1.1)

 Reference energy:                   -154.92921421

                        CORR.ENERGY   TOTAL ENERGY   ENERGY CHANGE
 MP2:                   -0.58045826  -155.50967247    -0.58045826

 SCS-MP2 correlation energy:           -0.58168939   (PS=  1.200000  PT=  0.333333)
 SCS-MP2 total energy:               -155.51090360

 MP3(D):                -0.58093379  -155.51014800    -0.00047553
 MP4(DQ):               -0.57491311  -155.50412732     0.00602068
 MP4(SDQ):              -0.57935865  -155.50857286    -0.00444554

 Norm of t1 vector:      0.05728902      S-energy:    -0.00444554      T1 diagnostic:  0.00863664

 Largest off-diagonal element in interal  block of Fock matrix:  0.12D+00
 Largest off-diagonal element in external block of Fock matrix:  0.14D+00


 Total CPU time for triples:      1.80 sec


 RESULTS
 =======

  Reference energy                   -154.929214213278
  MP4(SDQ) singlet pair energy         -0.396063898632
  MP4(SDQ) triplet pair energy         -0.178849212020
  MP4(SDQ) correlation energy          -0.579358650476

  Triples contribution                 -0.024368021920
  Total correlation energy             -0.603726672396

  MP4(SDQ) total energy              -155.508572863754
 !MP4(SDTQ) total energy             -155.532940885674

 Timing summary (sec):

 STEP                 CPU(USER)    SYS     CPU(TOT)    WALL
 Transformation          0.19      0.04      0.23      0.27
 CCSD iterations         3.22      0.02      3.24      0.47
 Triples                 1.80      0.11      1.91      1.95

 Program statistics:

 Available memory in ccsd:               805305876
 Min. memory needed in ccsd:                445155
 Max. memory used in ccsd:                  571223
 Max. memory used in cckext:                623772 ( 1 integral passes)



 **********************************************************************************************************************************
 DATASETS  * FILE   NREC   LENGTH (MB)   RECORD NAMES
              1      22       54.55       500      610      700      900      950      970     1000      129      960     1100   
                                          VAR    BASINP    GEOM    SYMINP    ZMAT    AOBASIS   BASIS     P2S    ABASIS      S 
                                         1400     1410     1200     1210     1080     1600     1650     1300     1700     1380   
                                           T        V       H0       H01     AOSYM     SMH    MOLCAS    ERIS     OPER     JKOP   
                                         7000     1380(1)
                                        PAPT AO   JKOP   

              2       5        0.78       700     1000      520     2100     7000   
                                         GEOM     BASIS   MCVARS     RHF     PAPT   

 PROGRAMS   *        TOTAL       MP4      PAPT    HF-SCF       INT
 CPU TIMES  *         5.01      2.45      0.67      0.26      1.49
 REAL TIME  *         6.78 SEC
 DISK USED  *        92.23 MB
 **********************************************************************************************************************************

 Dump information in style XML to xml output                                                                      

 Orbitals will not be exported.

 **********************************************************************************************************************************

 MP4/cc-pVDZ energy=   -155.532940885674

             MP4            PAPT          HF-SCF
   -155.53294089   -155.50186176   -154.92921421
 **********************************************************************************************************************************
 Molpro calculation terminated
