
 Working directory              : /home/jovyan/scratch/molpro.NxKR8XwvGy/
 Global scratch directory       : /home/jovyan/scratch/molpro.NxKR8XwvGy/
 Wavefunction directory         : /home/jovyan/wfu/
 Main file repository           : /home/jovyan/scratch/molpro.NxKR8XwvGy/

 id        : cardiff

 Nodes                nprocs
 jupyter-c-2efrancisan    1
 GA implementation: MPI file
 GA implementation (serial work in mppx): MPI file

 Using customized tuning parameters: mindgm=1; mindgv=20; mindgc=4; mindgr=1; noblas=0; minvec=7
 default implementation of scratch files=df  


 Variables initialized (1031), CPU time= 0.00 sec
 
 
 
 geometry={
 7
    C   -0.02390885627557     -0.05302641663315     -0.10745866578343
    N   0.00092066825824      0.00365468344940      1.44477708016972
    H   0.94208618779814     -0.01259041963198      1.82514474753541
    H   -0.46202504306172      0.82039651080639      1.83220555804372
    H   -0.47773812151175     -0.80605899270518      1.81564860500214
    H   -0.49462389264234      0.88965947573447     -0.38874381678550
    H   1.02864905743500      0.04713015898005     -0.37957750818206
 }
 basis=cc-pVDZ
 angstrom
 
 
 hf; papt;mp4
 
 
 
 {put,xml;noorbitals,nobasis}
 Commands initialized (841), CPU time= 0.01 sec, 704 directives.
 Default parameters read. Elapsed time= 0.08 sec

 Checking input...
 Passed
1


                                         ***  PROGRAM SYSTEM MOLPRO  ***
                                       Copyright, TTI GmbH Stuttgart, 2015
                                    Version 2023.1 linked Mon Jun  5 13:27:10 2023


 **********************************************************************************************************************************
 LABEL *                                                                                                                                                                 
  (16 PROC) 64 bit serial version                                                        DATE: 03-Aug-23          TIME: 22:43:15  
 **********************************************************************************************************************************

 SHA1:             9738a14712571edd23541b6d7c4f3a3d766f8287
 **********************************************************************************************************************************

 Memory per process:       805 MW
 Total memory per node:   1074 MW
 Total GA space:           268 MW

 GA preallocation disabled
 GA check enabled

 Geometry recognized as XYZ


 Variable memory set to 805.3 MW

 SETTING BASIS          =    CC-PVDZ


 Recomputing integrals since basis changed


 Using spherical harmonics

 Library entry C      S cc-pVDZ              selected for orbital group  1
 Library entry C      P cc-pVDZ              selected for orbital group  1
 Library entry C      D cc-pVDZ              selected for orbital group  1
 Library entry N      S cc-pVDZ              selected for orbital group  2
 Library entry N      P cc-pVDZ              selected for orbital group  2
 Library entry N      D cc-pVDZ              selected for orbital group  2
 Library entry H      S cc-pVDZ              selected for orbital group  3
 Library entry H      P cc-pVDZ              selected for orbital group  3


 PROGRAM * SEWARD (Integral evaluation for generally contracted gaussian basis sets)     Author: Roland Lindh, 1990

 Geometry written to block  1 of record 700


 Point group  C1  



 ATOMIC COORDINATES

 NR  ATOM    CHARGE       X              Y              Z

   1  C       6.00   -0.045181190   -0.100205405   -0.203067448
   2  N       7.00    0.001739811    0.006906351    2.730232993
   3  H       1.00    1.780284881   -0.023792445    3.449023711
   4  H       1.00   -0.873100794    1.550324719    3.462366709
   5  H       1.00   -0.902794209   -1.523230737    3.431078602
   6  H       1.00   -0.934703692    1.681212753   -0.734619346
   7  H       1.00    1.943864997    0.089063093   -0.717297534

 Bond lengths in Bohr (Angstrom)

 1-2  2.935630424  1-6  2.060885333  1-7  2.063143204  2-3  1.918547648  2-4  1.919246238
     ( 1.553468720)     ( 1.090573552)     ( 1.091768366)     ( 1.015251693)     ( 1.015621371)

 2-5  1.910676809
     ( 1.011086625)

 Bond angles

  1-2-3  112.86675045   1-2-4  113.77981822   1-2-5  109.25221902   2-1-6  103.47841796

  2-1-7  103.31424331   3-2-4  107.00834166   3-2-5  106.77565637   4-2-5  106.75608785

  6-1-7  105.81521240

 NUCLEAR CHARGE:                   18
 NUMBER OF PRIMITIVE AOS:          89
 NUMBER OF SYMMETRY AOS:           87
 NUMBER OF CONTRACTIONS:           53   (   53A   )
 NUMBER OF INNER CORE ORBITALS:     0   (    0A   )
 NUMBER OF OUTER CORE ORBITALS:     2   (    2A   )
 NUMBER OF VALENCE ORBITALS:       13   (   13A   )


 NUCLEAR REPULSION ENERGY   41.57132300

 Eigenvalues of metric

         1 0.716E-02 0.170E-01 0.301E-01 0.337E-01 0.361E-01 0.382E-01 0.447E-01 0.499E-01


 Contracted 2-electron integrals neglected if value below      1.0D-11
 AO integral compression algorithm  1   Integral accuracy      1.0D-11

     5.767 MB (compressed) written to integral file ( 59.1%)


 NUMBER OF SORTED TWO-ELECTRON INTEGRALS:    1024596.     BUFFER LENGTH:  32768
 NUMBER OF SEGMENTS:   1  SEGMENT LENGTH:    1024596      RECORD LENGTH: 524288

 Memory used in sort:       1.58 MW

 SORT1 READ     1206537. AND WROTE     1014575. INTEGRALS IN      3 RECORDS. CPU TIME:     0.01 SEC, REAL TIME:     0.08 SEC
 SORT2 READ     1014575. AND WROTE     1024596. INTEGRALS IN     22 RECORDS. CPU TIME:     0.05 SEC, REAL TIME:     0.06 SEC

 FILE SIZES:   FILE 1:    36.0 MBYTE,  FILE 4:    12.6 MBYTE,   TOTAL:     48.6 MBYTE

 OPERATOR DM      FOR CENTER  0  COORDINATES:    0.000000    0.000000    0.000000


 **********************************************************************************************************************************
 DATASETS  * FILE   NREC   LENGTH (MB)   RECORD NAMES
              1      19       33.32       500      610      700      900      950      970     1000      129      960     1100   
                                          VAR    BASINP    GEOM    SYMINP    ZMAT    AOBASIS   BASIS     P2S    ABASIS      S 
                                         1400     1410     1200     1210     1080     1600     1650     1300     1700   
                                           T        V       H0       H01     AOSYM     SMH    MOLCAS    ERIS     OPER   

 PROGRAMS   *        TOTAL       INT
 CPU TIMES  *         0.75      0.61
 REAL TIME  *         2.03 SEC
 DISK USED  *        46.78 MB
 **********************************************************************************************************************************


 Program * Restricted Hartree-Fock

 Orbital guess generated from atomic densities. Full valence occupancy:   15

 Initial occupancy:   9

 NELEC=   18   SYM=1   MS2= 0   THRE=1.0D-08   THRD=3.2D-06   THRG=3.2D-06  HFMA2=F  DIIS_START=2   DIIS_MAX=10   DIIS_INCORE=F

 Level shifts:    0.00 (CLOSED)    0.00 (OPEN)    0.30 (GAP_MIN)

 ITER           ETOT              DE          GRAD        DDIFF     DIIS  NEXP   TIME(IT)  TIME(TOT)  DIAG
   1      -95.03431182     -95.03431182     0.00D+00     0.14D+00     0     0       0.02      0.02    start
   2      -95.09705300      -0.06274118     0.12D-01     0.24D-01     1     0       0.01      0.03    diag
   3      -95.10734136      -0.01028836     0.51D-02     0.86D-02     2     0       0.01      0.04    diag
   4      -95.10819791      -0.00085655     0.10D-02     0.23D-02     3     0       0.01      0.05    diag
   5      -95.10828999      -0.00009208     0.32D-03     0.71D-03     4     0       0.01      0.06    diag
   6      -95.10830446      -0.00001447     0.12D-03     0.32D-03     5     0       0.01      0.07    diag
   7      -95.10830648      -0.00000202     0.37D-04     0.12D-03     6     0       0.00      0.07    diag
   8      -95.10830670      -0.00000022     0.10D-04     0.39D-04     7     0       0.01      0.08    fixocc
   9      -95.10830672      -0.00000002     0.28D-05     0.11D-04     8     0       0.01      0.09    diag
  10      -95.10830672      -0.00000000     0.67D-06     0.29D-05     9     0       0.01      0.10    diag/orth
  11      -95.10830672      -0.00000000     0.13D-06     0.40D-06     0     0       0.02      0.12    diag

 Final occupancy:   9

 !RHF STATE 1.1 Energy                -95.108306718677
  RHF One-electron energy            -210.046729294582
  RHF Two-electron energy              73.367099577105
  RHF Kinetic energy                   95.049410627911
  RHF Nuclear energy                   41.571322998799
  RHF Virial quotient                  -1.000619636570

 !RHF STATE 1.1 Dipole moment           0.29566492     0.54647391     2.20519530
 Dipole moment /Debye                   0.75150526     1.38899812     5.60504738

 Orbital energies:

           1.1          2.1          3.1          4.1          5.1          6.1          7.1          8.1          9.1         10.1
    -15.664494   -11.151435    -1.266431    -0.844744    -0.734327    -0.727670    -0.552337    -0.461581    -0.253248     0.139571

          11.1
      0.204328


 HOMO      9.1    -0.253248 =      -6.8912eV
 LUMO     10.1     0.139571 =       3.7979eV
 LUMO-HOMO         0.392818 =      10.6891eV

 Orbitals saved in record  2100.2


 **********************************************************************************************************************************
 DATASETS  * FILE   NREC   LENGTH (MB)   RECORD NAMES
              1      19       33.32       500      610      700      900      950      970     1000      129      960     1100   
                                          VAR    BASINP    GEOM    SYMINP    ZMAT    AOBASIS   BASIS     P2S    ABASIS      S 
                                         1400     1410     1200     1210     1080     1600     1650     1300     1700   
                                           T        V       H0       H01     AOSYM     SMH    MOLCAS    ERIS     OPER   

              2       4        0.52       700     1000      520     2100   
                                         GEOM     BASIS   MCVARS     RHF  

 PROGRAMS   *        TOTAL    HF-SCF       INT
 CPU TIMES  *         0.88      0.12      0.61
 REAL TIME  *         2.19 SEC
 DISK USED  *        46.78 MB
 **********************************************************************************************************************************


 PROGRAM * PAPT (Closed-shell)     Authors: C. Hampel, H.-J. Werner, 1991, P.J. Knowles, 2021


 Convergence thresholds:  THRVAR = 1.00D-08  THRDEN = 1.00D-06

 Number of core orbitals:           2 (   2 )
 Number of closed-shell orbitals:   7 (   7 )
 Number of external orbitals:      44 (  44 )

 Molecular orbitals read from record     2100.2  Type=RHF/CANONICAL  

 Number of N-1 electron functions:               7
 Number of N-2 electron functions:              28
 Number of singly external CSFs:               308
 Number of doubly external CSFs:             47586
 Total number of CSFs:                       47895

 Length of J-op  integral file:               0.00 MB
 Length of K-op  integral file:               0.26 MB

 Integral transformation finished. Total CPU:   0.03 sec, npass=  1  Memory used:   0.24 MW

 Reference energy:                    -95.10830672

                        CORR.ENERGY   TOTAL ENERGY   ENERGY CHANGE
 MP2:                   -0.32559921   -95.43390593    -0.32559921

 SCS-MP2 correlation energy:           -0.32710042   (PS=  1.200000  PT=  0.333333)
 SCS-MP2 total energy:                -95.43540714
 Iteration:   1     0.1868D+00
 Iteration:   2     0.4101D+00
 Iteration:   3     0.6975D-01
 Iteration:   4     0.4666D-01
 Iteration:   5     0.8388D-01
 Iteration:   6     0.2133D-01
 Iteration:   7     0.5148D-01
 Iteration:   8     0.9886D-02
 Iteration:   9     0.5163D-02
 Iteration:  10     0.1050D-01
 Iteration:  11     0.1540D-02
 Iteration:  12     0.7808D-02
 Iteration:  13     0.4722D-03
 Iteration:  14     0.6059D-03
 Iteration:  15     0.2356D-03
 Iteration:  16     0.5634D-04
 PAPT operator written to  7000.1
 PAPT orbitals and eigenvalues written to  7000.2

 MP3(D):                -0.35217131   -95.46047802    -0.02657209



 RESULTS
 =======

  Reference energy                    -95.108306718677
  MP3 singlet pair energy              -0.246077233049
  MP3 triplet pair energy              -0.106094072544
  MP3 correlation energy               -0.352171305593

 !MP3 total energy                    -95.460478024270

 Timing summary (sec):

 STEP                 CPU(USER)    SYS     CPU(TOT)    WALL
 Transformation          0.03      0.00      0.03      0.11
 CCSD iterations         1.37      0.02      1.39      0.26

 Program statistics:

 Available memory in ccsd:               805306163
 Min. memory needed in ccsd:                169752
 Max. memory used in ccsd:                  204605
 Max. memory used in cckext:                209706 ( 1 integral passes)



 **********************************************************************************************************************************
 DATASETS  * FILE   NREC   LENGTH (MB)   RECORD NAMES
              1      21       34.28       500      610      700      900      950      970     1000      129      960     1100   
                                          VAR    BASINP    GEOM    SYMINP    ZMAT    AOBASIS   BASIS     P2S    ABASIS      S 
                                         1400     1410     1200     1210     1080     1600     1650     1300     1700     1380   
                                           T        V       H0       H01     AOSYM     SMH    MOLCAS    ERIS     OPER     JKOP   
                                         7000   
                                        PAPT AO    

              2       5        0.69       700     1000      520     2100     7000   
                                         GEOM     BASIS   MCVARS     RHF     PAPT   

 PROGRAMS   *        TOTAL      PAPT    HF-SCF       INT
 CPU TIMES  *         1.17      0.30      0.12      0.61
 REAL TIME  *         2.61 SEC
 DISK USED  *        46.78 MB
 **********************************************************************************************************************************


 PROGRAM * MP4 (Closed-shell)     Authors: C. Hampel, H.-J. Werner, 1991, M. Deegan, P.J. Knowles, 1992


 Convergence thresholds:  THRVAR = 1.00D-08  THRDEN = 1.00D-06

 MP4(T)     terms to be evaluated (factor= 0.000)


 Number of core orbitals:           2 (   2 )
 Number of closed-shell orbitals:   7 (   7 )
 Number of external orbitals:      44 (  44 )

 Molecular orbitals read from record     7000.2  Type=PAPT/CANONICAL (state 1.1)

 Number of N-1 electron functions:               7
 Number of N-2 electron functions:              28
 Number of singly external CSFs:               308
 Number of doubly external CSFs:             47586
 Total number of CSFs:                       47895

 Length of J-op  integral file:               0.00 MB
 Length of K-op  integral file:               0.26 MB

 Memory could be reduced to 1.01 Mwords without degradation in triples

 Integral transformation finished. Total CPU:   0.04 sec, npass=  1  Memory used:   0.85 MW
 Orbital energies read from record       7000.2  Type=PAPT/CANONICAL (state 1.1)

 Reference energy:                    -95.10830672

                        CORR.ENERGY   TOTAL ENERGY   ENERGY CHANGE
 MP2:                   -0.35707835   -95.46538507    -0.35707835

 SCS-MP2 correlation energy:           -0.36066174   (PS=  1.200000  PT=  0.333333)
 SCS-MP2 total energy:                -95.46896846

 MP3(D):                -0.35728200   -95.46558872    -0.00020365
 MP4(DQ):               -0.35520903   -95.46351574     0.00207297
 MP4(SDQ):              -0.35706365   -95.46537037    -0.00185462

 Norm of t1 vector:      0.03749904      S-energy:    -0.00185462      T1 diagnostic:  0.00708665

 Largest off-diagonal element in interal  block of Fock matrix:  0.76D-01
 Largest off-diagonal element in external block of Fock matrix:  0.18D+00


 Total CPU time for triples:      0.26 sec


 RESULTS
 =======

  Reference energy                    -95.108306718677
  MP4(SDQ) singlet pair energy         -0.249418917799
  MP4(SDQ) triplet pair energy         -0.105790107839
  MP4(SDQ) correlation energy          -0.357063647965

  Triples contribution                 -0.010319919218
  Total correlation energy             -0.367383567183

  MP4(SDQ) total energy               -95.465370366642
 !MP4(SDTQ) total energy              -95.475690285860

 Timing summary (sec):

 STEP                 CPU(USER)    SYS     CPU(TOT)    WALL
 Transformation          0.06      0.01      0.07      0.12
 CCSD iterations         1.54      0.01      1.55      0.10
 Triples                 0.26      0.02      0.28      0.30

 Program statistics:

 Available memory in ccsd:               805306163
 Min. memory needed in ccsd:                169752
 Max. memory used in ccsd:                  204605
 Max. memory used in cckext:                209706 ( 1 integral passes)



 **********************************************************************************************************************************
 DATASETS  * FILE   NREC   LENGTH (MB)   RECORD NAMES
              1      22       36.60       500      610      700      900      950      970     1000      129      960     1100   
                                          VAR    BASINP    GEOM    SYMINP    ZMAT    AOBASIS   BASIS     P2S    ABASIS      S 
                                         1400     1410     1200     1210     1080     1600     1650     1300     1700     1380   
                                           T        V       H0       H01     AOSYM     SMH    MOLCAS    ERIS     OPER     JKOP   
                                         7000     1380(1)
                                        PAPT AO   JKOP   

              2       5        0.69       700     1000      520     2100     7000   
                                         GEOM     BASIS   MCVARS     RHF     PAPT   

 PROGRAMS   *        TOTAL       MP4      PAPT    HF-SCF       INT
 CPU TIMES  *         1.63      0.46      0.30      0.12      0.61
 REAL TIME  *         3.18 SEC
 DISK USED  *        46.78 MB
 **********************************************************************************************************************************

 Dump information in style XML to xml output                                                                      

 Orbitals will not be exported.

 **********************************************************************************************************************************

 MP4/cc-pVDZ energy=    -95.475690285860

             MP4            PAPT          HF-SCF
    -95.47569029    -95.46047802    -95.10830672
 **********************************************************************************************************************************
 Molpro calculation terminated
