
 Working directory              : /home/jovyan/scratch/molpro.FNh5nUjpPK/
 Global scratch directory       : /home/jovyan/scratch/molpro.FNh5nUjpPK/
 Wavefunction directory         : /home/jovyan/wfu/
 Main file repository           : /home/jovyan/scratch/molpro.FNh5nUjpPK/

 id        : cardiff

 Nodes                nprocs
 jupyter-c-2efrancisan    1
 GA implementation: MPI file
 GA implementation (serial work in mppx): MPI file

 Using customized tuning parameters: mindgm=1; mindgv=20; mindgc=4; mindgr=1; noblas=0; minvec=7
 default implementation of scratch files=df  


 Variables initialized (1031), CPU time= 0.00 sec
 
 
 
 geometry={
 20
  C    -0.0187703    0.7762139    0.1895647
  C     0.0187703   -0.7762139    0.1895647
  C     1.1577036   -1.2575558    1.0753312
  H    -0.9139647   -1.1210949    0.6423436
  C     0.1078564   -1.4161726   -1.1853194
  C    -0.1078564    1.4161726   -1.1853194
  H     0.9139647    1.1210949    0.6423436
  C    -1.1577036    1.2575558    1.0753312
  H     0.0191030    2.4918657   -1.1130497
  H     0.6550032    1.0414043   -1.8618886
  H    -1.0780969    1.2248344   -1.6480076
  H    -0.0191030   -2.4918657   -1.1130497
  H    -0.6550032   -1.0414043   -1.8618886
  H     1.0780969   -1.2248344   -1.6480076
  H     1.1872672   -2.3424319    1.1524796
  H     2.1123185   -0.9254986    0.6672670
  H     1.0674291   -0.8480126    2.0803607
  H    -1.1872672    2.3424319    1.1524796
  H    -2.1123185    0.9254986    0.6672670
  H    -1.0674291    0.8480126    2.0803607
 }
 basis=cc-pVTZ
 angstrom
 
 
 hf; ccsd(t)
 
 
 
 {put,xml;noorbitals,nobasis}
 Commands initialized (841), CPU time= 0.01 sec, 704 directives.
 Default parameters read. Elapsed time= 0.08 sec

 Checking input...
 Passed
1


                                         ***  PROGRAM SYSTEM MOLPRO  ***
                                       Copyright, TTI GmbH Stuttgart, 2015
                                    Version 2023.1 linked Mon Jun  5 13:27:10 2023


 **********************************************************************************************************************************
 LABEL *                                                                                                                                                                 
  (16 PROC) 64 bit serial version                                                        DATE: 04-Aug-23          TIME: 08:46:14  
 **********************************************************************************************************************************

 SHA1:             9738a14712571edd23541b6d7c4f3a3d766f8287
 **********************************************************************************************************************************

 Memory per process:       805 MW
 Total memory per node:   1074 MW
 Total GA space:           268 MW

 GA preallocation disabled
 GA check enabled

 Geometry recognized as XYZ


 Variable memory set to 805.3 MW

 SETTING BASIS          =    CC-PVTZ


 Recomputing integrals since basis changed


 Using spherical harmonics

 Library entry C      S cc-pVTZ              selected for orbital group  1
 Library entry C      P cc-pVTZ              selected for orbital group  1
 Library entry C      D cc-pVTZ              selected for orbital group  1
 Library entry C      F cc-pVTZ              selected for orbital group  1
 Library entry H      S cc-pVTZ              selected for orbital group  2
 Library entry H      P cc-pVTZ              selected for orbital group  2
 Library entry H      D cc-pVTZ              selected for orbital group  2


 PROGRAM * SEWARD (Integral evaluation for generally contracted gaussian basis sets)     Author: Roland Lindh, 1990

 Geometry written to block  1 of record 700


 Point group  C2  



 ATOMIC COORDINATES

 NR  ATOM    CHARGE       X              Y              Z

   1  C       6.00   -0.035470726    1.466831685    0.358225366
   2  C       6.00    0.035470726   -1.466831685    0.358225366
   3  C       6.00    2.187742737   -2.376436048    2.032081461
   4  C       6.00   -2.187742737    2.376436048    2.032081461
   5  H       1.00   -1.727142971   -2.118562321    1.213853482
   6  H       1.00    1.727142971    2.118562321    1.213853482
   7  C       6.00    0.203819057   -2.676178359   -2.239929036
   8  C       6.00   -0.203819057    2.676178359   -2.239929036
   9  H       1.00    0.036099438    4.708943712   -2.103359096
  10  H       1.00   -0.036099438   -4.708943712   -2.103359096
  11  H       1.00    1.237776659    1.967968912   -3.518459529
  12  H       1.00   -1.237776659   -1.967968912   -3.518459529
  13  H       1.00   -2.037307877    2.314601564   -3.114283015
  14  H       1.00    2.037307877   -2.314601564   -3.114283015
  15  H       1.00    2.243609845   -4.426554757    2.177870808
  16  H       1.00   -2.243609845    4.426554757    2.177870808
  17  H       1.00    3.991703453   -1.748938883    1.260951882
  18  H       1.00   -3.991703453    1.748938883    1.260951882
  19  H       1.00    2.017148656   -1.602511564    3.931311963
  20  H       1.00   -2.017148656    1.602511564    3.931311963

 Bond lengths in Bohr (Angstrom)

 1-2  2.934520993  1-4  2.874273671  1-6  2.064863031  1-8  2.870760672  2-3  2.874273671
     ( 1.552881635)     ( 1.521000125)     ( 1.092678460)     ( 1.519141126)     ( 1.521000125)

  2- 5  2.064863031   2- 7  2.870760672   3-15  2.056055054   3-17  2.059773722   3-19  2.057945079
       ( 1.092678460)       ( 1.519141126)       ( 1.088017479)       ( 1.089985313)       ( 1.089017637)

  4-16  2.056055054   4-18  2.059773722   4-20  2.057945079   7-10  2.051425654   7-12  2.052900155
       ( 1.088017479)       ( 1.089985313)       ( 1.089017637)       ( 1.085567706)       ( 1.086347978)

  7-14  2.063229002   8- 9  2.051425654   8-11  2.052900155   8-13  2.063229002
       ( 1.091813768)       ( 1.085567706)       ( 1.086347978)       ( 1.091813768)

 Bond angles

  1- 2- 3  109.54054388   1- 2- 5  107.15157666   1- 2- 7  114.99619341   1- 4-16  112.15975412

  1- 4-18  109.96086858   1- 4-20  110.87686538   1- 8- 9  110.50699899   1- 8-11  112.15692769

  1- 8-13  111.21228658   2- 1- 4  109.54054388   2- 1- 6  107.15157666   2- 1- 8  114.99619341

  2- 3-15  112.15975412   2- 3-17  109.96086858   2- 3-19  110.87686538   2- 7-10  110.50699899

  2- 7-12  112.15692769   2- 7-14  111.21228658   3- 2- 5  107.33735912   3- 2- 7  110.47697507

  4-1-6  107.33735912   4-1-8  110.47697507   5-2-7  106.98503092   6-1-8  106.98503092

  9- 8-11  107.52829003   9- 8-13  107.80604445  10- 7-12  107.52829003  10- 7-14  107.80604445

 11- 8-13  107.43645239  12- 7-14  107.43645239  15- 3-17  107.84919901  15- 3-19  108.16741034

 16- 4-18  107.84919901  16- 4-20  108.16741034  17- 3-19  107.67015472  18- 4-20  107.67015472

 NUCLEAR CHARGE:                   50
 NUMBER OF PRIMITIVE AOS:         520
 NUMBER OF SYMMETRY AOS:          476
 NUMBER OF CONTRACTIONS:          376   (  188A   +  188B   )
 NUMBER OF INNER CORE ORBITALS:     0   (    0A   +    0B   )
 NUMBER OF OUTER CORE ORBITALS:     6   (    3A   +    3B   )
 NUMBER OF VALENCE ORBITALS:       38   (   19A   +   19B   )


 NUCLEAR REPULSION ENERGY  263.96192097


 Eigenvalues of metric

         1 0.699E-03 0.795E-03 0.879E-03 0.113E-02 0.118E-02 0.133E-02 0.142E-02 0.158E-02
         2 0.296E-03 0.660E-03 0.968E-03 0.109E-02 0.111E-02 0.116E-02 0.130E-02 0.144E-02


 Contracted 2-electron integrals neglected if value below      1.0D-11
 AO integral compression algorithm  1   Integral accuracy      1.0D-11

     5035.262 MB (compressed) written to integral file ( 45.5%)


 NUMBER OF SORTED TWO-ELECTRON INTEGRALS: 1262540790.     BUFFER LENGTH:  32768
 NUMBER OF SEGMENTS:  40  SEGMENT LENGTH:   31999469      RECORD LENGTH: 524288

 Memory used in sort:      32.56 MW

 SORT1 READ  1382177120. AND WROTE  1186985156. INTEGRALS IN   3416 RECORDS. CPU TIME:    23.58 SEC, REAL TIME:    35.37 SEC
 SORT2 READ  1186985156. AND WROTE  1262540790. INTEGRALS IN  19208 RECORDS. CPU TIME:    23.72 SEC, REAL TIME:    32.45 SEC

 FILE SIZES:   FILE 1:  5069.1 MBYTE,  FILE 4: 14327.8 MBYTE,   TOTAL:  19396.9 MBYTE

 OPERATOR DM      FOR CENTER  0  COORDINATES:    0.000000    0.000000    0.000000


 **********************************************************************************************************************************
 DATASETS  * FILE   NREC   LENGTH (MB)   RECORD NAMES
              1      19     4651.10       500      610      700      900      950      970     1000      129      960     1100   
                                          VAR    BASINP    GEOM    SYMINP    ZMAT    AOBASIS   BASIS     P2S    ABASIS      S 
                                         1400     1410     1200     1210     1080     1600     1650     1300     1700   
                                           T        V       H0       H01     AOSYM     SMH    MOLCAS    ERIS     OPER   

 PROGRAMS   *        TOTAL       INT
 CPU TIMES  *       178.09    177.95
 REAL TIME  *       210.24 SEC
 DISK USED  *        18.07 GB
 **********************************************************************************************************************************


 Program * Restricted Hartree-Fock

 Orbital guess generated from atomic densities. Full valence occupancy:   22  22

 Initial occupancy:  13  12

 NELEC=   50   SYM=1   MS2= 0   THRE=1.0D-08   THRD=3.2D-06   THRG=3.2D-06  HFMA2=F  DIIS_START=2   DIIS_MAX=10   DIIS_INCORE=F

 Level shifts:    0.00 (CLOSED)    0.00 (OPEN)    0.30 (GAP_MIN)

 ITER           ETOT              DE          GRAD        DDIFF     DIIS  NEXP   TIME(IT)  TIME(TOT)  DIAG
   1     -235.34661327    -235.34661327     0.00D+00     0.52D-01     0     0       9.20     17.83    start
   2     -235.42753421      -0.08092093     0.37D-02     0.51D-02     1     0       9.25     27.08    diag
   3     -235.43804877      -0.01051457     0.14D-02     0.16D-02     2     0       9.20     36.28    diag
   4     -235.43970136      -0.00165259     0.47D-03     0.58D-03     3     0       9.18     45.46    diag
   5     -235.43975125      -0.00004989     0.89D-04     0.13D-03     4     0       9.20     54.66    diag
   6     -235.43975629      -0.00000504     0.27D-04     0.51D-04     5     0       9.08     63.74    diag
   7     -235.43975642      -0.00000013     0.34D-05     0.97D-05     6     0       9.14     72.88    diag
   8     -235.43975643      -0.00000001     0.75D-06     0.17D-05     7     0       9.21     82.09    fixocc
   9     -235.43975643      -0.00000000     0.21D-06     0.37D-06     0     0       9.24     91.33    diag

 Final occupancy:  13  12

 !RHF STATE 1.1 Energy               -235.439756428555
  RHF One-electron energy            -839.500679906370
  RHF Two-electron energy             340.099002507503
  RHF Kinetic energy                  235.351043500427
  RHF Nuclear energy                  263.961920970312
  RHF Virial quotient                  -1.000376938750

 !RHF STATE 1.1 Dipole moment           0.00000000     0.00000000     0.01165708
 Dipole moment /Debye                   0.00000000     0.00000000     0.02962934

 Orbital energies:

           1.1          2.1          3.1          4.1          5.1          6.1          7.1          8.1          9.1         10.1
    -11.217070   -11.205042   -11.203519    -1.104519    -0.938961    -0.826900    -0.624044    -0.605444    -0.559657    -0.533207

          11.1         12.1         13.1         14.1         15.1
     -0.489654    -0.440656    -0.435315     0.137945     0.170224

           1.2          2.2          3.2          4.2          5.2          6.2          7.2          8.2          9.2         10.2
    -11.216513   -11.205042   -11.203526    -1.014346    -0.917135    -0.746818    -0.625195    -0.551357    -0.537161    -0.519019

          11.2         12.2         13.2         14.2
     -0.484229    -0.447016     0.164349     0.168392


 HOMO     13.1    -0.435315 =     -11.8455eV
 LUMO     14.1     0.137945 =       3.7537eV
 LUMO-HOMO         0.573260 =      15.5992eV

 Orbitals saved in record  2100.2


 **********************************************************************************************************************************
 DATASETS  * FILE   NREC   LENGTH (MB)   RECORD NAMES
              1      19     4651.10       500      610      700      900      950      970     1000      129      960     1100   
                                          VAR    BASINP    GEOM    SYMINP    ZMAT    AOBASIS   BASIS     P2S    ABASIS      S 
                                         1400     1410     1200     1210     1080     1600     1650     1300     1700   
                                           T        V       H0       H01     AOSYM     SMH    MOLCAS    ERIS     OPER   

              2       4        1.84       700     1000      520     2100   
                                         GEOM     BASIS   MCVARS     RHF  

 PROGRAMS   *        TOTAL    HF-SCF       INT
 CPU TIMES  *       269.43     91.33    177.95
 REAL TIME  *       312.09 SEC
 DISK USED  *        18.07 GB
 **********************************************************************************************************************************


 PROGRAM * CCSD (Closed-shell coupled cluster)     Authors: C. Hampel, H.-J. Werner, 1991, M. Deegan, P.J. Knowles, 1992


 Convergence thresholds:  THRVAR = 1.00D-08  THRDEN = 1.00D-06

 CCSD(T)     terms to be evaluated (factor= 1.000)


 Number of core orbitals:           6 (   3   3 )
 Number of closed-shell orbitals:  19 (  10   9 )
 Number of external orbitals:     351 ( 175 176 )

 Molecular orbitals read from record     2100.2  Type=RHF/CANONICAL  

 Number of N-1 electron functions:              19
 Number of N-2 electron functions:             190
 Number of singly external CSFs:              3334
 Number of doubly external CSFs:          11122225
 Total number of CSFs:                    11125560

 Length of J-op  integral file:               0.00 MB
 Length of K-op  integral file:               4.92 MB
 Length of 3-ext integral record:             0.00 MB

 Memory could be reduced to 490.49 Mwords without degradation in triples

 Integral transformation finished. Total CPU: 145.53 sec, npass=  1  Memory used: 212.19 MW

 Reference energy:                   -235.43975643

 MP2 singlet pair energy:              -0.72146262
 MP2 triplet pair energy:              -0.35341717
 MP2 correlation energy:               -1.07487979
 MP2 total energy:                   -236.51463622

 SCS-MP2 correlation energy:           -1.08565916   (PS=  1.200000  PT=  0.333333)
 SCS-MP2 total energy:               -236.52541559

 ITER.      SQ.NORM     CORR.ENERGY   TOTAL ENERGY   ENERGY CHANGE        DEN1      VAR(S)    VAR(P)  DIIS     TIME  TIME/IT
   1      1.36421612    -1.13940397  -236.57916040    -0.06452418    -0.03780837  0.31D-02  0.53D-02  1  1   502.27    89.46
   2      1.38924075    -1.14400004  -236.58375647    -0.00459607    -0.02621813  0.50D-04  0.51D-03  2  2   590.75    90.74
   3      1.39595927    -1.14403668  -236.58379311    -0.00003664    -0.00434260  0.11D-04  0.28D-04  3  3   679.45    91.15
   4      1.39758236    -1.14408560  -236.58384203    -0.00004892    -0.00073460  0.71D-06  0.18D-05  4  4   767.91    91.34
   5      1.39783394    -1.14409063  -236.58384705    -0.00000502    -0.00008916  0.62D-07  0.14D-06  5  5   856.54    91.45
   6      1.39787025    -1.14408647  -236.58384290     0.00000416    -0.00001317  0.64D-08  0.93D-08  6  6   945.49    91.60
   7      1.39787118    -1.14408611  -236.58384254     0.00000036    -0.00000017  0.82D-09  0.84D-09  6  2  1037.21    92.14
   8      1.39787188    -1.14408604  -236.58384247     0.00000007    -0.00000049  0.12D-09  0.77D-10  6  1  1126.61    92.21

 Norm of t1 vector:      0.07262058      S-energy:    -0.00000004      T1 diagnostic:  0.00833015
                                                                       D1 diagnostic:  0.01621135
                                                                       D2 diagnostic:  0.14641556 (internal)

   CPU time for triples:   1850.96 sec for i =  1 - 15 / 19 (~  50.7 % done)
