
 Working directory              : /home/jovyan/scratch/molpro.wpnF4aBiYx/
 Global scratch directory       : /home/jovyan/scratch/molpro.wpnF4aBiYx/
 Wavefunction directory         : /home/jovyan/wfu/
 Main file repository           : /home/jovyan/scratch/molpro.wpnF4aBiYx/

 id        : cardiff

 Nodes                nprocs
 jupyter-c-2efrancisan    1
 GA implementation: MPI file
 GA implementation (serial work in mppx): MPI file

 Using customized tuning parameters: mindgm=1; mindgv=20; mindgc=4; mindgr=1; noblas=0; minvec=7
 default implementation of scratch files=df  


 Variables initialized (1031), CPU time= 0.00 sec
 
 
 
 geometry={
 20
  C     0.0000000   -0.7842119    0.4870298
  C     0.0000000    0.7842119    0.4870298
  C    -1.2407250    1.4167465   -0.1340541
  H    -0.0000000    1.0914546    1.5332924
  C     1.2407250    1.4167465   -0.1340541
  C     1.2407250   -1.4167465   -0.1340541
  C    -1.2407250   -1.4167465   -0.1340541
  H    -0.0000000   -1.0914546    1.5332924
  H     1.1999321   -2.4968260   -0.0082871
  H     1.3107097   -1.2059374   -1.1999296
  H     2.1582055   -1.0720738    0.3327865
  H    -1.1999321   -2.4968260   -0.0082871
  H    -2.1582055   -1.0720738    0.3327865
  H    -1.3107097   -1.2059374   -1.1999296
  H     1.1999321    2.4968260   -0.0082871
  H     2.1582055    1.0720738    0.3327865
  H     1.3107097    1.2059374   -1.1999296
  H    -1.1999321    2.4968260   -0.0082871
  H    -1.3107097    1.2059374   -1.1999296
  H    -2.1582055    1.0720738    0.3327865
 }
 basis=cc-pVDZ
 angstrom
 
 
 hf; papt;mp2
 
 
 
 {put,xml;noorbitals,nobasis}
 Commands initialized (841), CPU time= 0.01 sec, 704 directives.
 Default parameters read. Elapsed time= 0.08 sec

 Checking input...
 Passed
1


                                         ***  PROGRAM SYSTEM MOLPRO  ***
                                       Copyright, TTI GmbH Stuttgart, 2015
                                    Version 2023.1 linked Mon Jun  5 13:27:10 2023


 **********************************************************************************************************************************
 LABEL *                                                                                                                                                                 
  (16 PROC) 64 bit serial version                                                        DATE: 03-Aug-23          TIME: 20:55:14  
 **********************************************************************************************************************************

 SHA1:             9738a14712571edd23541b6d7c4f3a3d766f8287
 **********************************************************************************************************************************

 Memory per process:       805 MW
 Total memory per node:   1074 MW
 Total GA space:           268 MW

 GA preallocation disabled
 GA check enabled

 Geometry recognized as XYZ


 Variable memory set to 805.3 MW

 SETTING BASIS          =    CC-PVDZ


 Recomputing integrals since basis changed


 Using spherical harmonics

 Library entry C      S cc-pVDZ              selected for orbital group  1
 Library entry C      P cc-pVDZ              selected for orbital group  1
 Library entry C      D cc-pVDZ              selected for orbital group  1
 Library entry H      S cc-pVDZ              selected for orbital group  2
 Library entry H      P cc-pVDZ              selected for orbital group  2


 PROGRAM * SEWARD (Integral evaluation for generally contracted gaussian basis sets)     Author: Roland Lindh, 1990

 Geometry written to block  1 of record 700


 Point group  C2v 



 ATOMIC COORDINATES

 NR  ATOM    CHARGE       X              Y              Z

   1  C       6.00    0.000000000   -1.481945715    0.920352937
   2  C       6.00    0.000000000    1.481945715    0.920352937
   3  C       6.00   -2.344630446    2.677262873   -0.253325535
   4  C       6.00    2.344630446    2.677262873   -0.253325535
   5  C       6.00    2.344630446   -2.677262873   -0.253325535
   6  C       6.00   -2.344630446   -2.677262873   -0.253325535
   7  H       1.00    0.000000000    2.062550271    2.897502705
   8  H       1.00    0.000000000   -2.062550271    2.897502705
   9  H       1.00    2.267543037   -4.718317321   -0.015660349
  10  H       1.00   -2.267543037   -4.718317321   -0.015660349
  11  H       1.00    2.267543037    4.718317321   -0.015660349
  12  H       1.00   -2.267543037    4.718317321   -0.015660349
  13  H       1.00    2.476882362   -2.278891409   -2.267538313
  14  H       1.00   -2.476882362   -2.278891409   -2.267538313
  15  H       1.00    2.476882362    2.278891409   -2.267538313
  16  H       1.00   -2.476882362    2.278891409   -2.267538313
  17  H       1.00    4.078417316   -2.025925867    0.628875343
  18  H       1.00   -4.078417316   -2.025925867    0.628875343
  19  H       1.00    4.078417316    2.025925867    0.628875343
  20  H       1.00   -4.078417316    2.025925867    0.628875343

 Bond lengths in Bohr (Angstrom)

 1-2  2.963891429  1-5  2.881596119  1-6  2.881596119  1-8  2.060636518  2-3  2.881596119
     ( 1.568423800)     ( 1.524874997)     ( 1.524874997)     ( 1.090441885)     ( 1.524874997)

  2- 4  2.881596119   2- 7  2.060636518   3-12  2.056290463   3-16  2.057484753   3-20  2.051471470
       ( 1.524874997)       ( 1.090441885)       ( 1.088142052)       ( 1.088774043)       ( 1.085591951)

  4-11  2.056290463   4-15  2.057484753   4-19  2.051471470   5- 9  2.056290463   5-13  2.057484753
       ( 1.088142052)       ( 1.088774043)       ( 1.085591951)       ( 1.088142052)       ( 1.088774043)

  5-17  2.051471470   6-10  2.056290463   6-14  2.057484753   6-18  2.051471470
       ( 1.085591951)       ( 1.088142052)       ( 1.088774043)       ( 1.085591951)

 Bond angles

  1-2-3  114.50740151   1-2-4  114.50740151   1-2-7  106.36526387   1-5-9  109.52138609

  1- 5-13  111.76003051   1- 5-17  112.38336217   1- 6-10  109.52138609   1- 6-14  111.76003051

  1- 6-18  112.38336217   2- 1- 5  114.50740151   2- 1- 6  114.50740151   2- 1- 8  106.36526387

  2- 3-12  109.52138609   2- 3-16  111.76003051   2- 3-20  112.38336217   2- 4-11  109.52138609

  2- 4-15  111.76003051   2- 4-19  112.38336217   3- 2- 4  108.90954159   3- 2- 7  105.89782290

  4-2-7  105.89782290   5-1-6  108.90954159   5-1-8  105.89782290   6-1-8  105.89782290

  9- 5-13  107.92335393   9- 5-17  107.28501390  10- 6-14  107.92335393  10- 6-18  107.28501390

 11- 4-15  107.92335393  11- 4-19  107.28501390  12- 3-16  107.92335393  12- 3-20  107.28501390

 13- 5-17  107.76962173  14- 6-18  107.76962173  15- 4-19  107.76962173  16- 3-20  107.76962173

 NUCLEAR CHARGE:                   50
 NUMBER OF PRIMITIVE AOS:         260
 NUMBER OF SYMMETRY AOS:          254
 NUMBER OF CONTRACTIONS:          154   (   43A1  +   34B1  +   43B2  +   34A2  )
 NUMBER OF INNER CORE ORBITALS:     0   (    0A1  +    0B1  +    0B2  +    0A2  )
 NUMBER OF OUTER CORE ORBITALS:     6   (    2A1  +    1B1  +    2B2  +    1A2  )
 NUMBER OF VALENCE ORBITALS:       38   (   11A1  +    8B1  +   11B2  +    8A2  )


 NUCLEAR REPULSION ENERGY  264.57914302

 Eigenvalues of metric

         1 0.418E-02 0.167E-01 0.288E-01 0.360E-01 0.372E-01 0.400E-01 0.471E-01 0.526E-01
         2 0.721E-02 0.269E-01 0.322E-01 0.349E-01 0.366E-01 0.459E-01 0.520E-01 0.863E-01
         3 0.152E-02 0.555E-02 0.109E-01 0.154E-01 0.284E-01 0.332E-01 0.356E-01 0.375E-01
         4 0.270E-02 0.134E-01 0.179E-01 0.199E-01 0.310E-01 0.335E-01 0.463E-01 0.512E-01


 Contracted 2-electron integrals neglected if value below      1.0D-11
 AO integral compression algorithm  1   Integral accuracy      1.0D-11

     98.042 MB (compressed) written to integral file ( 53.5%)


 NUMBER OF SORTED TWO-ELECTRON INTEGRALS:   18164077.     BUFFER LENGTH:  32768
 NUMBER OF SEGMENTS:   2  SEGMENT LENGTH:   15997393      RECORD LENGTH: 524288

 Memory used in sort:      16.55 MW

 SORT1 READ    22889656. AND WROTE    17985048. INTEGRALS IN     53 RECORDS. CPU TIME:     0.57 SEC, REAL TIME:     1.11 SEC
 SORT2 READ    17985048. AND WROTE    18164077. INTEGRALS IN    374 RECORDS. CPU TIME:     0.61 SEC, REAL TIME:     0.70 SEC

 FILE SIZES:   FILE 1:   128.9 MBYTE,  FILE 4:   222.4 MBYTE,   TOTAL:    351.3 MBYTE

 OPERATOR DM      FOR CENTER  0  COORDINATES:    0.000000    0.000000    0.000000


 **********************************************************************************************************************************
 DATASETS  * FILE   NREC   LENGTH (MB)   RECORD NAMES
              1      19      105.28       500      610      700      900      950      970     1000      129      960     1100   
                                          VAR    BASINP    GEOM    SYMINP    ZMAT    AOBASIS   BASIS     P2S    ABASIS      S 
                                         1400     1410     1200     1210     1080     1600     1650     1300     1700   
                                           T        V       H0       H01     AOSYM     SMH    MOLCAS    ERIS     OPER   

 PROGRAMS   *        TOTAL       INT
 CPU TIMES  *        12.49     12.35
 REAL TIME  *        14.44 SEC
 DISK USED  *       335.67 MB
 **********************************************************************************************************************************


 Program * Restricted Hartree-Fock

 Orbital guess generated from atomic densities. Full valence occupancy:   13   9  13   9

 Initial occupancy:   8   5   7   5

 NELEC=   50   SYM=1   MS2= 0   THRE=1.0D-08   THRD=3.2D-06   THRG=3.2D-06  HFMA2=F  DIIS_START=2   DIIS_MAX=10   DIIS_INCORE=F

 Level shifts:    0.00 (CLOSED)    0.00 (OPEN)    0.30 (GAP_MIN)

 ITER           ETOT              DE          GRAD        DDIFF     DIIS  NEXP   TIME(IT)  TIME(TOT)  DIAG
   1     -235.27693829    -235.27693829     0.00D+00     0.16D+00     0     0       0.07      0.14    start
   2     -235.35562168      -0.07868338     0.81D-02     0.17D-01     1     0       0.08      0.22    diag
   3     -235.36485931      -0.00923763     0.31D-02     0.61D-02     2     0       0.07      0.29    diag
   4     -235.36627577      -0.00141646     0.10D-02     0.21D-02     3     0       0.07      0.36    diag
   5     -235.36630597      -0.00003020     0.17D-03     0.34D-03     4     0       0.07      0.43    diag
   6     -235.36630861      -0.00000264     0.47D-04     0.12D-03     5     0       0.07      0.50    diag
   7     -235.36630868      -0.00000008     0.72D-05     0.18D-04     6     0       0.06      0.56    diag
   8     -235.36630869      -0.00000001     0.18D-05     0.56D-05     7     0       0.07      0.63    fixocc
   9     -235.36630869      -0.00000000     0.31D-06     0.11D-05     8     0       0.07      0.70    diag
  10     -235.36630869      -0.00000000     0.64D-07     0.17D-06     0     0       0.08      0.78    diag/orth

 Final occupancy:   8   5   7   5

 !RHF STATE 1.1 Energy               -235.366308688765
  RHF One-electron energy            -840.578565458567
  RHF Two-electron energy             340.633113747712
  RHF Kinetic energy                  235.290690099811
  RHF Nuclear energy                  264.579143022091
  RHF Virial quotient                  -1.000321383685

 !RHF STATE 1.1 Dipole moment           0.00000000     0.00000000     0.07458848
 Dipole moment /Debye                   0.00000000     0.00000000     0.18958501

 Orbital energies:

           1.1          2.1          3.1          4.1          5.1          6.1          7.1          8.1          9.1         10.1
    -11.222010   -11.210430    -1.100556    -0.839576    -0.651218    -0.620768    -0.500191    -0.435800     0.172635     0.207366

           1.2          2.2          3.2          4.2          5.2          6.2          7.2
    -11.210458    -0.942373    -0.576628    -0.544166    -0.497055     0.217605     0.269570

           1.3          2.3          3.3          4.3          5.3          6.3          7.3          8.3          9.3
    -11.221504   -11.210440    -1.015400    -0.727347    -0.577506    -0.537918    -0.428829     0.220574     0.285270

           1.4          2.4          3.4          4.4          5.4          6.4          7.4
    -11.210474    -0.907882    -0.523327    -0.501932    -0.442384     0.279315     0.346220


 HOMO      7.3    -0.428829 =     -11.6690eV
 LUMO      9.1     0.172635 =       4.6976eV
 LUMO-HOMO         0.601464 =      16.3667eV

 Orbitals saved in record  2100.2


 **********************************************************************************************************************************
 DATASETS  * FILE   NREC   LENGTH (MB)   RECORD NAMES
              1      19      105.28       500      610      700      900      950      970     1000      129      960     1100   
                                          VAR    BASINP    GEOM    SYMINP    ZMAT    AOBASIS   BASIS     P2S    ABASIS      S 
                                         1400     1410     1200     1210     1080     1600     1650     1300     1700   
                                           T        V       H0       H01     AOSYM     SMH    MOLCAS    ERIS     OPER   

              2       4        0.81       700     1000      520     2100   
                                         GEOM     BASIS   MCVARS     RHF  

 PROGRAMS   *        TOTAL    HF-SCF       INT
 CPU TIMES  *        13.27      0.78     12.35
 REAL TIME  *        15.35 SEC
 DISK USED  *       335.67 MB
 **********************************************************************************************************************************


 PROGRAM * PAPT (Closed-shell)     Authors: C. Hampel, H.-J. Werner, 1991, P.J. Knowles, 2021


 Convergence thresholds:  THRVAR = 1.00D-08  THRDEN = 1.00D-06

 Number of core orbitals:           6 (   2   1   2   1 )
 Number of closed-shell orbitals:  19 (   6   4   5   4 )
 Number of external orbitals:     129 (  35  29  36  29 )

 Molecular orbitals read from record     2100.2  Type=RHF/CANONICAL  

 Number of N-1 electron functions:              19
 Number of N-2 electron functions:             190
 Number of singly external CSFs:               622
 Number of doubly external CSFs:            752341
 Total number of CSFs:                      752964

 Length of J-op  integral file:               0.00 MB
 Length of K-op  integral file:               0.48 MB

 Integral transformation finished. Total CPU:   0.29 sec, npass=  1  Memory used:   1.21 MW

 Reference energy:                   -235.36630869

                        CORR.ENERGY   TOTAL ENERGY   ENERGY CHANGE
 MP2:                   -0.88141415  -236.24772284    -0.88141415

 SCS-MP2 correlation energy:           -0.88417051   (PS=  1.200000  PT=  0.333333)
 SCS-MP2 total energy:               -236.25047920
 Iteration:   1     0.1775D+00
 Iteration:   2     0.7362D+00
 Iteration:   3     0.3910D-01
 Iteration:   4     0.8200D-01
 Iteration:   5     0.1475D-01
 Iteration:   6     0.1376D-01
 Iteration:   7     0.7268D-02
 Iteration:   8     0.3159D-02
 Iteration:   9     0.7742D-02
 Iteration:  10     0.9147D-03
 Iteration:  11     0.1382D-02
 Iteration:  12     0.3760D-03
 Iteration:  13     0.1050D-03
 Iteration:  14     0.2973D-03
 Iteration:  15     0.2979D-04
 PAPT operator written to  7000.1
 PAPT orbitals and eigenvalues written to  7000.2

 MP3(D):                -0.95722629  -236.32353498    -0.07581215



 RESULTS
 =======

  Reference energy                   -235.366308688765
  MP3 singlet pair energy              -0.665474169015
  MP3 triplet pair energy              -0.291752124951
  MP3 correlation energy               -0.957226293966

 !MP3 total energy                   -236.323534982731

 Timing summary (sec):

 STEP                 CPU(USER)    SYS     CPU(TOT)    WALL
 Transformation          0.33      0.05      0.38      0.54
 CCSD iterations        16.52      0.09     16.61      3.10

 Program statistics:

 Available memory in ccsd:               805304916
 Min. memory needed in ccsd:               1899251
 Max. memory used in ccsd:                 2578023
 Max. memory used in cckext:               2448268 ( 1 integral passes)



 **********************************************************************************************************************************
 DATASETS  * FILE   NREC   LENGTH (MB)   RECORD NAMES
              1      21      118.34       500      610      700      900      950      970     1000      129      960     1100   
                                          VAR    BASINP    GEOM    SYMINP    ZMAT    AOBASIS   BASIS     P2S    ABASIS      S 
                                         1400     1410     1200     1210     1080     1600     1650     1300     1700     1380   
                                           T        V       H0       H01     AOSYM     SMH    MOLCAS    ERIS     OPER     JKOP   
                                         7000   
                                        PAPT AO    

              2       5        1.05       700     1000      520     2100     7000   
                                         GEOM     BASIS   MCVARS     RHF     PAPT   

 PROGRAMS   *        TOTAL      PAPT    HF-SCF       INT
 CPU TIMES  *        16.60      3.33      0.78     12.35
 REAL TIME  *        19.03 SEC
 DISK USED  *       335.67 MB
 **********************************************************************************************************************************


 PROGRAM * MP2 (Closed-shell)     Authors: C. Hampel, H.-J. Werner, 1991, M. Deegan, P.J. Knowles, 1992


 Convergence thresholds:  THRVAR = 1.00D-08  THRDEN = 1.00D-06

 Number of core orbitals:           6 (   2   1   2   1 )
 Number of closed-shell orbitals:  19 (   6   4   5   4 )
 Number of external orbitals:     129 (  35  29  36  29 )

 Molecular orbitals read from record     7000.2  Type=PAPT/CANONICAL (state 1.1)

 Number of N-1 electron functions:              19
 Number of N-2 electron functions:             190
 Number of singly external CSFs:               622
 Number of doubly external CSFs:            752341
 Total number of CSFs:                      752964

 Length of J-op  integral file:               0.00 MB
 Length of K-op  integral file:               0.48 MB

 Integral transformation finished. Total CPU:   0.29 sec, npass=  1  Memory used:   1.21 MW
 Orbital energies read from record       7000.2  Type=PAPT/CANONICAL (state 1.1)

 Memory needed for MP2:                      0.03 MW

 SCS-MP2 correlation energy:           -0.980494892020   (PS=  1.200000  PT=  0.333333)
 SCS-MP2 total energy:               -236.346803580785


  Reference energy                   -235.366308688765
  MP2 singlet pair energy              -0.651127642660
  MP2 triplet pair energy              -0.320049194189
  MP2 correlation energy               -0.971176836848

 !MP2 total energy                   -236.337485525613


 **********************************************************************************************************************************
 DATASETS  * FILE   NREC   LENGTH (MB)   RECORD NAMES
              1      21      118.34       500      610      700      900      950      970     1000      129      960     1100   
                                          VAR    BASINP    GEOM    SYMINP    ZMAT    AOBASIS   BASIS     P2S    ABASIS      S 
                                         1400     1410     1200     1210     1080     1600     1650     1300     1700     1380   
                                           T        V       H0       H01     AOSYM     SMH    MOLCAS    ERIS     OPER     JKOP   
                                         7000   
                                        PAPT AO    

              2       5        1.05       700     1000      520     2100     7000   
                                         GEOM     BASIS   MCVARS     RHF     PAPT   

 PROGRAMS   *        TOTAL       MP2      PAPT    HF-SCF       INT
 CPU TIMES  *        17.10      0.50      3.33      0.78     12.35
 REAL TIME  *        19.69 SEC
 DISK USED  *       335.67 MB
 **********************************************************************************************************************************

 Dump information in style XML to xml output                                                                      

 Orbitals will not be exported.

 **********************************************************************************************************************************

 MP2/cc-pVDZ energy=   -236.337485525613

             MP2            PAPT          HF-SCF
   -236.33748553   -236.32353498   -235.36630869
 **********************************************************************************************************************************
 Molpro calculation terminated
