
 Working directory              : /home/jovyan/scratch/molpro.U0gujaiXxA/
 Global scratch directory       : /home/jovyan/scratch/molpro.U0gujaiXxA/
 Wavefunction directory         : /home/jovyan/wfu/
 Main file repository           : /home/jovyan/scratch/molpro.U0gujaiXxA/

 id        : cardiff

 Nodes                nprocs
 jupyter-c-2efrancisan    1
 GA implementation: MPI file
 GA implementation (serial work in mppx): MPI file

 Using customized tuning parameters: mindgm=1; mindgv=20; mindgc=4; mindgr=1; noblas=0; minvec=7
 default implementation of scratch files=df  


 Variables initialized (1031), CPU time= 0.01 sec
 
 
 
 geometry={
           10
     C          0.93577667      0.39537143      0.00000000
     C          0.85196601     -0.96841085      0.00000000
     O         -1.50506259     -1.24340628      0.00000000
     N         -1.72883338     -0.04590722      0.00000000
     C         -1.16713640      1.02284528      0.00000000
     H          1.15273844      0.92694986      0.92000024
     H          1.15273844      0.92694986     -0.92000024
     H          0.87762775     -1.53660420      0.92009471
     H          0.87762775     -1.53660420     -0.92009471
     H         -1.44744268      2.05881632      0.00000000
 }
 basis=cc-pVTZ
 angstrom
 
 
 hf; ccsd(t)
 
 
 
 {put,xml;noorbitals,nobasis}
 Commands initialized (841), CPU time= 0.01 sec, 704 directives.
 Default parameters read. Elapsed time= 0.08 sec

 Checking input...
 Passed
1


                                         ***  PROGRAM SYSTEM MOLPRO  ***
                                       Copyright, TTI GmbH Stuttgart, 2015
                                    Version 2023.1 linked Mon Jun  5 13:27:10 2023


 **********************************************************************************************************************************
 LABEL *                                                                                                                                                                 
  (16 PROC) 64 bit serial version                                                        DATE: 03-Aug-23          TIME: 12:09:20  
 **********************************************************************************************************************************

 SHA1:             9738a14712571edd23541b6d7c4f3a3d766f8287
 **********************************************************************************************************************************

 Memory per process:       805 MW
 Total memory per node:   1074 MW
 Total GA space:           268 MW

 GA preallocation disabled
 GA check enabled

 Geometry recognized as XYZ


 Variable memory set to 805.3 MW

 SETTING BASIS          =    CC-PVTZ


 Recomputing integrals since basis changed


 Using spherical harmonics

 Library entry C      S cc-pVTZ              selected for orbital group  1
 Library entry C      P cc-pVTZ              selected for orbital group  1
 Library entry C      D cc-pVTZ              selected for orbital group  1
 Library entry C      F cc-pVTZ              selected for orbital group  1
 Library entry O      S cc-pVTZ              selected for orbital group  2
 Library entry O      P cc-pVTZ              selected for orbital group  2
 Library entry O      D cc-pVTZ              selected for orbital group  2
 Library entry O      F cc-pVTZ              selected for orbital group  2
 Library entry N      S cc-pVTZ              selected for orbital group  3
 Library entry N      P cc-pVTZ              selected for orbital group  3
 Library entry N      D cc-pVTZ              selected for orbital group  3
 Library entry N      F cc-pVTZ              selected for orbital group  3
 Library entry H      S cc-pVTZ              selected for orbital group  5
 Library entry H      P cc-pVTZ              selected for orbital group  5
 Library entry H      D cc-pVTZ              selected for orbital group  5


 PROGRAM * SEWARD (Integral evaluation for generally contracted gaussian basis sets)     Author: Roland Lindh, 1990

 Geometry written to block  1 of record 700


 Point group  Cs  



 ATOMIC COORDINATES

 NR  ATOM    CHARGE       X              Y              Z

   1  C       6.00    1.768361620    0.747143720    0.000000000
   2  C       6.00    1.609982426   -1.830031283    0.000000000
   3  O       8.00   -2.844156096   -2.349697331    0.000000000
   4  N       7.00   -3.267021603   -0.086752073    0.000000000
   5  C       6.00   -2.205568146    1.932897447    0.000000000
   6  H       1.00    2.178359945    1.751681367    1.738548488
   7  H       1.00    2.178359945    1.751681367   -1.738548488
   8  H       1.00    1.658476087   -2.903761100    1.738727011
   9  H       1.00    1.658476087   -2.903761100   -1.738727011
  10  H       1.00   -2.735270246    3.890598986    0.000000000

 Bond lengths in Bohr (Angstrom)

 1-2  2.582036980  1-6  2.049328025  1-7  2.049328025  2-8  2.044118141  2-9  2.044118141
     ( 1.366355127)     ( 1.084457689)     ( 1.084457689)     ( 1.081700736)     ( 1.081700736)

  3- 4  2.302115653   4- 5  2.281593221   5-10  2.028097539
       ( 1.218227140)       ( 1.207367137)       ( 1.073222999)

 Bond angles

  1-2-8  121.52250959   1-2-9  121.52250959   2-1-6  120.10112852   2-1-7  120.10112852

  3- 4- 5  141.69072663   4- 5-10  137.13504101   6- 1- 7  116.06542625   8- 2- 9  116.55399035

 NUCLEAR CHARGE:                   38
 NUMBER OF PRIMITIVE AOS:         320
 NUMBER OF SYMMETRY AOS:          290
 NUMBER OF CONTRACTIONS:          220   (  138A'  +   82A"  )
 NUMBER OF INNER CORE ORBITALS:     0   (    0A'  +    0A"  )
 NUMBER OF OUTER CORE ORBITALS:     5   (    5A'  +    0A"  )
 NUMBER OF VALENCE ORBITALS:       25   (   18A'  +    7A"  )


 NUCLEAR REPULSION ENERGY  161.14848520


 Eigenvalues of metric

         1 0.415E-03 0.105E-02 0.131E-02 0.138E-02 0.144E-02 0.160E-02 0.182E-02 0.268E-02
         2 0.913E-03 0.185E-02 0.399E-02 0.925E-02 0.968E-02 0.128E-01 0.200E-01 0.270E-01


 Contracted 2-electron integrals neglected if value below      1.0D-11
 AO integral compression algorithm  1   Integral accuracy      1.0D-11

     573.309 MB (compressed) written to integral file ( 43.3%)


 NUMBER OF SORTED TWO-ELECTRON INTEGRALS:  149704861.     BUFFER LENGTH:  32768
 NUMBER OF SEGMENTS:  10  SEGMENT LENGTH:   15999437      RECORD LENGTH: 524288

 Memory used in sort:      16.56 MW

 SORT1 READ   165541656. AND WROTE   137477157. INTEGRALS IN    397 RECORDS. CPU TIME:     2.59 SEC, REAL TIME:     3.79 SEC
 SORT2 READ   137477157. AND WROTE   149704861. INTEGRALS IN   2187 RECORDS. CPU TIME:     2.95 SEC, REAL TIME:     3.62 SEC

 FILE SIZES:   FILE 1:   604.8 MBYTE,  FILE 4:  1665.2 MBYTE,   TOTAL:   2270.0 MBYTE

 OPERATOR DM      FOR CENTER  0  COORDINATES:    0.000000    0.000000    0.000000


 **********************************************************************************************************************************
 DATASETS  * FILE   NREC   LENGTH (MB)   RECORD NAMES
              1      19      541.29       500      610      700      900      950      970     1000      129      960     1100   
                                          VAR    BASINP    GEOM    SYMINP    ZMAT    AOBASIS   BASIS     P2S    ABASIS      S 
                                         1400     1410     1200     1210     1080     1600     1650     1300     1700   
                                           T        V       H0       H01     AOSYM     SMH    MOLCAS    ERIS     OPER   

 PROGRAMS   *        TOTAL       INT
 CPU TIMES  *        21.37     21.24
 REAL TIME  *        25.30 SEC
 DISK USED  *         2.11 GB
 **********************************************************************************************************************************


 Program * Restricted Hartree-Fock

 Orbital guess generated from atomic densities. Full valence occupancy:   23   7

 Initial occupancy:  15   4

 NELEC=   38   SYM=1   MS2= 0   THRE=1.0D-08   THRD=3.2D-06   THRG=3.2D-06  HFMA2=F  DIIS_START=2   DIIS_MAX=10   DIIS_INCORE=F

 Level shifts:    0.00 (CLOSED)    0.00 (OPEN)    0.30 (GAP_MIN)

 ITER           ETOT              DE          GRAD        DDIFF     DIIS  NEXP   TIME(IT)  TIME(TOT)  DIAG
   1     -245.61445476    -245.61445476     0.00D+00     0.72D-01     0     0       1.24      2.42    start
   2     -245.66337682      -0.04892206     0.61D-02     0.85D-02     1     0       1.25      3.67    diag
   3     -245.69843519      -0.03505837     0.46D-02     0.38D-02     2     0       1.24      4.91    diag
   4     -245.70027614      -0.00184095     0.80D-03     0.99D-03     3     0       1.24      6.15    diag
   5     -245.70058084      -0.00030470     0.28D-03     0.43D-03     4     0       1.24      7.39    diag
   6     -245.70069153      -0.00011069     0.19D-03     0.20D-03     5     0       1.25      8.64    diag
   7     -245.70074408      -0.00005255     0.73D-04     0.17D-03     6     0       1.22      9.86    diag
   8     -245.70077816      -0.00003408     0.49D-04     0.16D-03     7     0       1.22     11.08    fixocc
   9     -245.70079464      -0.00001648     0.27D-04     0.15D-03     8     0       1.22     12.30    diag
  10     -245.70079708      -0.00000244     0.12D-04     0.52D-04     9     0       1.26     13.56    diag/orth
  11     -245.70079759      -0.00000051     0.52D-05     0.31D-04     9     0       1.23     14.79    diag
  12     -245.70079762      -0.00000002     0.17D-05     0.59D-05     9     0       1.24     16.03    diag
  13     -245.70079762      -0.00000000     0.43D-06     0.85D-06     9     0       1.24     17.27    diag
  14     -245.70079762      -0.00000000     0.24D-06     0.35D-06     0     0       1.23     18.50    diag

 Final occupancy:  15   4

 !RHF STATE 1.1 Energy               -245.700797617597
  RHF One-electron energy            -653.158368650538
  RHF Two-electron energy             246.309085836713
  RHF Kinetic energy                  245.295559315976
  RHF Nuclear energy                  161.148485196228
  RHF Virial quotient                  -1.001652040921

 !RHF STATE 1.1 Dipole moment           0.47916385     1.17648355     0.00000000
 Dipole moment /Debye                   1.21791302     2.99032292     0.00000000

 Orbital energies:

           1.1          2.1          3.1          4.1          5.1          6.1          7.1          8.1          9.1         10.1
    -20.579164   -15.703804   -11.311774   -11.252930   -11.236101    -1.483495    -1.171959    -1.038231    -0.811766    -0.790615

          11.1         12.1         13.1         14.1         15.1         16.1         17.1
     -0.706953    -0.649540    -0.589608    -0.410362    -0.343981     0.076739     0.141159

           1.2          2.2          3.2          4.2          5.2          6.2
     -0.658017    -0.628574    -0.518266    -0.384987     0.156405     0.199820


 HOMO     15.1    -0.343981 =      -9.3602eV
 LUMO     16.1     0.076739 =       2.0882eV
 LUMO-HOMO         0.420720 =      11.4484eV

 Orbitals saved in record  2100.2


 **********************************************************************************************************************************
 DATASETS  * FILE   NREC   LENGTH (MB)   RECORD NAMES
              1      19      541.29       500      610      700      900      950      970     1000      129      960     1100   
                                          VAR    BASINP    GEOM    SYMINP    ZMAT    AOBASIS   BASIS     P2S    ABASIS      S 
                                         1400     1410     1200     1210     1080     1600     1650     1300     1700   
                                           T        V       H0       H01     AOSYM     SMH    MOLCAS    ERIS     OPER   

              2       4        0.95       700     1000      520     2100   
                                         GEOM     BASIS   MCVARS     RHF  

 PROGRAMS   *        TOTAL    HF-SCF       INT
 CPU TIMES  *        39.88     18.51     21.24
 REAL TIME  *        45.73 SEC
 DISK USED  *         2.11 GB
 **********************************************************************************************************************************


 PROGRAM * CCSD (Closed-shell coupled cluster)     Authors: C. Hampel, H.-J. Werner, 1991, M. Deegan, P.J. Knowles, 1992


 Convergence thresholds:  THRVAR = 1.00D-08  THRDEN = 1.00D-06

 CCSD(T)     terms to be evaluated (factor= 1.000)


 Number of core orbitals:           5 (   5   0 )
 Number of closed-shell orbitals:  14 (  10   4 )
 Number of external orbitals:     201 ( 123  78 )

 Molecular orbitals read from record     2100.2  Type=RHF/CANONICAL  

 Number of N-1 electron functions:              14
 Number of N-2 electron functions:             105
 Number of singly external CSFs:              1542
 Number of doubly external CSFs:           1999281
 Total number of CSFs:                     2000824

 Length of J-op  integral file:               0.00 MB
 Length of K-op  integral file:               1.83 MB
 Length of 3-ext integral record:             0.00 MB

 Memory could be reduced to 72.25 Mwords without degradation in triples

 Integral transformation finished. Total CPU:   7.45 sec, npass=  1  Memory used:  27.43 MW

 Reference energy:                   -245.70079762

 MP2 singlet pair energy:              -0.60978134
 MP2 triplet pair energy:              -0.37630623
 MP2 correlation energy:               -0.98608757
 MP2 total energy:                   -246.68688518

 SCS-MP2 correlation energy:           -0.96588370   (PS=  1.200000  PT=  0.333333)
 SCS-MP2 total energy:               -246.66668132

 ITER.      SQ.NORM     CORR.ENERGY   TOTAL ENERGY   ENERGY CHANGE        DEN1      VAR(S)    VAR(P)  DIIS     TIME  TIME/IT
   1      1.30839106    -0.98602425  -246.68682186     0.00006332     0.04438804  0.14D-01  0.13D-01  1  1    56.74     9.30
   2      1.33602971    -0.98257867  -246.68337629     0.00344558    -0.03195982  0.44D-03  0.16D-02  2  2    66.06     9.57
   3      1.35162630    -0.98385158  -246.68464920    -0.00127291    -0.00563774  0.67D-03  0.19D-03  3  3    75.48     9.65
   4      1.35977177    -0.98348412  -246.68428174     0.00036746    -0.00252162  0.11D-03  0.42D-04  4  4    84.78     9.67
   5      1.36689239    -0.98356834  -246.68436596    -0.00008422    -0.00132903  0.22D-04  0.50D-05  5  5    94.11     9.69
   6      1.36936542    -0.98348384  -246.68428146     0.00008450    -0.00025756  0.37D-05  0.98D-06  6  6   103.45     9.70
   7      1.37019525    -0.98345824  -246.68425586     0.00002560    -0.00005187  0.98D-06  0.23D-06  6  2   112.80     9.75
   8      1.37046175    -0.98345504  -246.68425265     0.00000320    -0.00000426  0.18D-06  0.74D-07  6  1   122.26     9.82
   9      1.37054453    -0.98345382  -246.68425143     0.00000122     0.00001050  0.43D-07  0.13D-07  6  4   132.02     9.86
  10      1.37059115    -0.98345458  -246.68425219    -0.00000076    -0.00001026  0.75D-08  0.27D-08  6  3   141.74     9.89
  11      1.37058930    -0.98345540  -246.68425302    -0.00000083     0.00000331  0.15D-08  0.70D-09  6  5   151.47     9.91

 Norm of t1 vector:      0.17155371      S-energy:     0.00000121      T1 diagnostic:  0.02292483
                                                                       D1 diagnostic:  0.09663845
                                                                       D2 diagnostic:  0.21096655 (external, symmetry=1)

 Singles amplitudes (print threshold =  0.500E-01):

         I         SYM. A    A   T(IA)

         9         1         1     -0.05564258
        10         1         1      0.06947046

 Doubles amplitudes (print threshold =  0.500E-01):

         I         J         SYM. A    SYM. B    A         B      T(IJ, AB)

         9         9         1         1         1         1     -0.06638083
        10        10         1         1         1         1     -0.08551595
        14        14         2         2         1         1     -0.05769243


 Total CPU time for triples:    241.41 sec


 RESULTS
 =======

  Reference energy                   -245.700797617597
  CCSD singlet pair energy             -0.662251926606
  CCSD triplet pair energy             -0.321204684745
  CCSD correlation energy              -0.983455402875

  Triples (T) contribution             -0.057054724321
  Total correlation energy             -1.040510127196

  CCSD total energy                  -246.684253020471
  CCSD[T] energy                     -246.745442999340
  CCSD-T energy                      -246.740347167541
 !CCSD(T) total energy               -246.741307744793

 Timing summary (sec):

 STEP                 CPU(USER)    SYS     CPU(TOT)    WALL
 Transformation          7.58      0.74      8.32      8.73
 CCSD iterations       144.02      3.96    147.98    109.20
 Triples               241.41      6.63    248.04    249.99

 Program statistics:

 Available memory in ccsd:               805305569
 Min. memory needed in ccsd:               5099596
 Max. memory used in ccsd:                 6899295
 Max. memory used in cckext:               6953784 (11 integral passes)



 **********************************************************************************************************************************
 DATASETS  * FILE   NREC   LENGTH (MB)   RECORD NAMES
              1      20      790.35       500      610      700      900      950      970     1000      129      960     1100   
                                          VAR    BASINP    GEOM    SYMINP    ZMAT    AOBASIS   BASIS     P2S    ABASIS      S 
                                         1400     1410     1200     1210     1080     1600     1650     1300     1700     1380   
                                           T        V       H0       H01     AOSYM     SMH    MOLCAS    ERIS     OPER     JKOP   

              2       4        0.95       700     1000      520     2100   
                                         GEOM     BASIS   MCVARS     RHF  

 PROGRAMS   *        TOTAL   CCSD(T)    HF-SCF       INT
 CPU TIMES  *       392.79    352.91     18.51     21.24
 REAL TIME  *       413.73 SEC
 DISK USED  *         2.11 GB
 **********************************************************************************************************************************

 Dump information in style XML to xml output                                                                      

 Orbitals will not be exported.

 **********************************************************************************************************************************

 CCSD(T)/cc-pVTZ energy=   -246.741307744793

         CCSD(T)          HF-SCF
   -246.74130774   -245.70079762
 **********************************************************************************************************************************
 Molpro calculation terminated
