
 Working directory              : /home/jovyan/scratch/molpro.VvlURVKlsf/
 Global scratch directory       : /home/jovyan/scratch/molpro.VvlURVKlsf/
 Wavefunction directory         : /home/jovyan/wfu/
 Main file repository           : /home/jovyan/scratch/molpro.VvlURVKlsf/

 id        : cardiff

 Nodes                nprocs
 jupyter-c-2efrancisan    1
 GA implementation: MPI file
 GA implementation (serial work in mppx): MPI file

 Using customized tuning parameters: mindgm=1; mindgv=20; mindgc=4; mindgr=1; noblas=0; minvec=7
 default implementation of scratch files=df  


 Variables initialized (1031), CPU time= 0.01 sec
 
 
 
 geometry={
 4
  O    -0.0044695   -0.7207736    0.0000000
  O     0.0044695    0.7207736    0.0000000
  H    -0.9535873   -0.8702773    0.0000000
  H     0.9535873    0.8702773    0.0000000
 }
 basis=cc-pVDZ
 angstrom
 
 
 hf
 
 
 
 {put,xml;noorbitals,nobasis}
 Commands initialized (841), CPU time= 0.00 sec, 704 directives.
 Default parameters read. Elapsed time= 0.07 sec

 Checking input...
 Passed
1


                                         ***  PROGRAM SYSTEM MOLPRO  ***
                                       Copyright, TTI GmbH Stuttgart, 2015
                                    Version 2023.1 linked Mon Jun  5 13:27:10 2023


 **********************************************************************************************************************************
 LABEL *                                                                                                                                                                 
  (16 PROC) 64 bit serial version                                                        DATE: 03-Aug-23          TIME: 09:55:34  
 **********************************************************************************************************************************

 SHA1:             9738a14712571edd23541b6d7c4f3a3d766f8287
 **********************************************************************************************************************************

 Memory per process:       805 MW
 Total memory per node:   1074 MW
 Total GA space:           268 MW

 GA preallocation disabled
 GA check enabled

 Geometry recognized as XYZ


 Variable memory set to 805.3 MW

 SETTING BASIS          =    CC-PVDZ


 Recomputing integrals since basis changed


 Using spherical harmonics

 Library entry O      S cc-pVDZ              selected for orbital group  1
 Library entry O      P cc-pVDZ              selected for orbital group  1
 Library entry O      D cc-pVDZ              selected for orbital group  1
 Library entry H      S cc-pVDZ              selected for orbital group  2
 Library entry H      P cc-pVDZ              selected for orbital group  2


 PROGRAM * SEWARD (Integral evaluation for generally contracted gaussian basis sets)     Author: Roland Lindh, 1990

 Geometry written to block  1 of record 700


 Point group  C2h 



 ATOMIC COORDINATES

 NR  ATOM    CHARGE       X              Y              Z

   1  O       8.00   -0.008446131   -1.362064702    0.000000000
   2  O       8.00    0.008446131    1.362064702    0.000000000
   3  H       1.00   -1.802018833   -1.644585749    0.000000000
   4  H       1.00    1.802018833    1.644585749    0.000000000

 Bond lengths in Bohr (Angstrom)

 1-2  2.724181777  1-3  1.815687523  2-4  1.815687523
     ( 1.441574915)     ( 0.960820459)     ( 0.960820459)

 Bond angles

  1-2-4   99.30688336   2-1-3   99.30688336

 NUCLEAR CHARGE:                   18
 NUMBER OF PRIMITIVE AOS:          68
 NUMBER OF SYMMETRY AOS:           66
 NUMBER OF CONTRACTIONS:           38   (   14Ag  +    5Au  +   14Bu  +    5Bg  )
 NUMBER OF INNER CORE ORBITALS:     0   (    0Ag  +    0Au  +    0Bu  +    0Bg  )
 NUMBER OF OUTER CORE ORBITALS:     2   (    1Ag  +    0Au  +    1Bu  +    0Bg  )
 NUMBER OF VALENCE ORBITALS:       10   (    4Ag  +    1Au  +    4Bu  +    1Bg  )


 NUCLEAR REPULSION ENERGY   37.06917144

 Eigenvalues of metric

         1 0.247E-01 0.449E-01 0.135E+00 0.155E+00 0.221E+00 0.554E+00 0.956E+00 0.994E+00
         2 0.204E+00 0.576E+00 0.107E+01 0.121E+01 0.252E+01
         3 0.117E-01 0.479E-01 0.905E-01 0.166E+00 0.182E+00 0.431E+00 0.633E+00 0.966E+00
         4 0.155E+00 0.559E+00 0.871E+00 0.113E+01 0.170E+01


 Contracted 2-electron integrals neglected if value below      1.0D-11
 AO integral compression algorithm  1   Integral accuracy      1.0D-11

     0.786 MB (compressed) written to integral file ( 76.7%)


 NUMBER OF SORTED TWO-ELECTRON INTEGRALS:      78720.     BUFFER LENGTH:  32768
 NUMBER OF SEGMENTS:   1  SEGMENT LENGTH:      78720      RECORD LENGTH: 524288

 Memory used in sort:       0.64 MW

 SORT1 READ      129016. AND WROTE       78720. INTEGRALS IN      1 RECORDS. CPU TIME:     0.00 SEC, REAL TIME:     0.05 SEC
 SORT2 READ       78720. AND WROTE       78720. INTEGRALS IN      3 RECORDS. CPU TIME:     0.02 SEC, REAL TIME:     0.02 SEC

 FILE SIZES:   FILE 1:    30.9 MBYTE,  FILE 4:     4.3 MBYTE,   TOTAL:     35.1 MBYTE

 OPERATOR DM      FOR CENTER  0  COORDINATES:    0.000000    0.000000    0.000000


 **********************************************************************************************************************************
 DATASETS  * FILE   NREC   LENGTH (MB)   RECORD NAMES
              1      19       29.07       500      610      700      900      950      970     1000      129      960     1100   
                                          VAR    BASINP    GEOM    SYMINP    ZMAT    AOBASIS   BASIS     P2S    ABASIS      S 
                                         1400     1410     1200     1210     1080     1600     1650     1300     1700   
                                           T        V       H0       H01     AOSYM     SMH    MOLCAS    ERIS     OPER   

 PROGRAMS   *        TOTAL       INT
 CPU TIMES  *         0.51      0.39
 REAL TIME  *         1.41 SEC
 DISK USED  *        33.86 MB
 **********************************************************************************************************************************


 Program * Restricted Hartree-Fock

 Orbital guess generated from atomic densities. Full valence occupancy:    5   1   5   1

 Initial occupancy:   4   1   3   1

 NELEC=   18   SYM=1   MS2= 0   THRE=1.0D-08   THRD=3.2D-06   THRG=3.2D-06  HFMA2=F  DIIS_START=2   DIIS_MAX=10   DIIS_INCORE=F

 Level shifts:    0.00 (CLOSED)    0.00 (OPEN)    0.30 (GAP_MIN)

 ITER           ETOT              DE          GRAD        DDIFF     DIIS  NEXP   TIME(IT)  TIME(TOT)  DIAG
   1     -150.75933607    -150.75933607     0.00D+00     0.37D+00     0     0       0.00      0.01    start
   2     -150.78303551      -0.02369944     0.19D-01     0.37D-01     1     0       0.00      0.01    diag
   3     -150.78391116      -0.00087565     0.34D-02     0.62D-02     2     0       0.00      0.01    diag
   4     -150.78401085      -0.00009969     0.94D-03     0.23D-02     3     0       0.00      0.01    diag
   5     -150.78402057      -0.00000971     0.34D-03     0.58D-03     4     0       0.00      0.01    diag
   6     -150.78402134      -0.00000078     0.68D-04     0.15D-03     5     0       0.00      0.01    diag
   7     -150.78402137      -0.00000003     0.13D-04     0.29D-04     6     0       0.00      0.01    diag
   8     -150.78402137      -0.00000000     0.34D-05     0.84D-05     7     0       0.00      0.01    fixocc
   9     -150.78402137      -0.00000000     0.73D-06     0.17D-05     8     0       0.01      0.02    diag
  10     -150.78402137      -0.00000000     0.88D-07     0.17D-06     0     0       0.00      0.02    diag/orth

 Final occupancy:   4   1   3   1

 !RHF STATE 1.1 Energy               -150.784021373487
  RHF One-electron energy            -281.881465837467
  RHF Two-electron energy              94.028273023657
  RHF Kinetic energy                  150.698870420147
  RHF Nuclear energy                   37.069171440323
  RHF Virial quotient                  -1.000565040422

 !RHF STATE 1.1 Dipole moment           0.00000000     0.00000000     0.00000000
 Dipole moment /Debye                   0.00000000     0.00000000     0.00000000

 Orbital energies:

           1.1          2.1          3.1          4.1          5.1          6.1
    -20.620103    -1.472580    -0.665077    -0.536249     0.192348     0.831051

           1.2          2.2          3.2
     -0.621485     1.146368     1.558377

           1.3          2.3          3.3          4.3          5.3
    -20.619809    -1.206786    -0.722584     0.195996     0.310166

           1.4          2.4          3.4
     -0.447788     1.257249     1.533676


 HOMO      1.4    -0.447788 =     -12.1849eV
 LUMO      5.1     0.192348 =       5.2341eV
 LUMO-HOMO         0.640136 =      17.4190eV

 Orbitals saved in record  2100.2


 **********************************************************************************************************************************
 DATASETS  * FILE   NREC   LENGTH (MB)   RECORD NAMES
              1      19       29.07       500      610      700      900      950      970     1000      129      960     1100   
                                          VAR    BASINP    GEOM    SYMINP    ZMAT    AOBASIS   BASIS     P2S    ABASIS      S 
                                         1400     1410     1200     1210     1080     1600     1650     1300     1700   
                                           T        V       H0       H01     AOSYM     SMH    MOLCAS    ERIS     OPER   

              2       4        0.44       700     1000      520     2100   
                                         GEOM     BASIS   MCVARS     RHF  

 PROGRAMS   *        TOTAL    HF-SCF       INT
 CPU TIMES  *         0.53      0.02      0.39
 REAL TIME  *         1.43 SEC
 DISK USED  *        33.86 MB
 **********************************************************************************************************************************

 Dump information in style XML to xml output                                                                      

 Orbitals will not be exported.

 **********************************************************************************************************************************

 HF/cc-pVDZ energy=   -150.784021373487

          HF-SCF
   -150.78402137
 **********************************************************************************************************************************
 Molpro calculation terminated
