
 Working directory              : /home/jovyan/scratch/molpro.3srM4ouhWU/
 Global scratch directory       : /home/jovyan/scratch/molpro.3srM4ouhWU/
 Wavefunction directory         : /home/jovyan/wfu/
 Main file repository           : /home/jovyan/scratch/molpro.3srM4ouhWU/

 id        : cardiff

 Nodes                nprocs
 jupyter-c-2efrancisan    1
 GA implementation: MPI file
 GA implementation (serial work in mppx): MPI file

 Using customized tuning parameters: mindgm=1; mindgv=20; mindgc=4; mindgr=1; noblas=0; minvec=7
 default implementation of scratch files=df  


 Variables initialized (1031), CPU time= 0.00 sec
 
 
 
 geometry={
            6
     C         -0.13926933      0.33472048      0.00000000
     O         -0.13926933     -1.08341104      0.00000000
     H         -1.17980283      0.64759124      0.00000000
     H          0.76774408     -1.38539133      0.00000000
     H          0.34529870      0.74324532      0.88954166
     H          0.34529870      0.74324532     -0.88954166
 }
 basis=cc-pVTZ
 angstrom
 
 
 hf; papt;mp4
 
 
 
 {put,xml;noorbitals,nobasis}
 Commands initialized (841), CPU time= 0.01 sec, 704 directives.
 Default parameters read. Elapsed time= 0.08 sec

 Checking input...
 Passed
1


                                         ***  PROGRAM SYSTEM MOLPRO  ***
                                       Copyright, TTI GmbH Stuttgart, 2015
                                    Version 2023.1 linked Mon Jun  5 13:27:10 2023


 **********************************************************************************************************************************
 LABEL *                                                                                                                                                                 
  (16 PROC) 64 bit serial version                                                        DATE: 02-Aug-23          TIME: 15:48:08  
 **********************************************************************************************************************************

 SHA1:             9738a14712571edd23541b6d7c4f3a3d766f8287
 **********************************************************************************************************************************

 Memory per process:       805 MW
 Total memory per node:   1074 MW
 Total GA space:           268 MW

 GA preallocation disabled
 GA check enabled

 Geometry recognized as XYZ


 Variable memory set to 805.3 MW

 SETTING BASIS          =    CC-PVTZ


 Recomputing integrals since basis changed


 Using spherical harmonics

 Library entry C      S cc-pVTZ              selected for orbital group  1
 Library entry C      P cc-pVTZ              selected for orbital group  1
 Library entry C      D cc-pVTZ              selected for orbital group  1
 Library entry C      F cc-pVTZ              selected for orbital group  1
 Library entry O      S cc-pVTZ              selected for orbital group  2
 Library entry O      P cc-pVTZ              selected for orbital group  2
 Library entry O      D cc-pVTZ              selected for orbital group  2
 Library entry O      F cc-pVTZ              selected for orbital group  2
 Library entry H      S cc-pVTZ              selected for orbital group  3
 Library entry H      P cc-pVTZ              selected for orbital group  3
 Library entry H      D cc-pVTZ              selected for orbital group  3


 PROGRAM * SEWARD (Integral evaluation for generally contracted gaussian basis sets)     Author: Roland Lindh, 1990

 Geometry written to block  1 of record 700


 Point group  Cs  



 ATOMIC COORDINATES

 NR  ATOM    CHARGE       X              Y              Z

   1  C       6.00   -0.263180891    0.632530036    0.000000000
   2  O       8.00   -0.263180891   -2.047350146    0.000000000
   3  H       1.00   -2.229504230    1.223770084    0.000000000
   4  H       1.00    1.450826045   -2.618010189    0.000000000
   5  H       1.00    0.652519974    1.404530098    1.680990114
   6  H       1.00    0.652519974    1.404530098   -1.680990114

 Bond lengths in Bohr (Angstrom)

 1-2  2.679880181  1-3  2.053288160  1-5  2.064030023  1-6  2.064030023  2-4  1.806508417
     ( 1.418131520)     ( 1.086553302)     ( 1.092237651)     ( 1.092237651)     ( 0.955963086)

 Bond angles

  1-2-4  108.41462081   2-1-3  106.73514063   2-1-5  111.96410162   2-1-6  111.96410162

  3-1-5  108.49107784   3-1-6  108.49107784   5-1-6  109.06037247

 NUCLEAR CHARGE:                   18
 NUMBER OF PRIMITIVE AOS:         162
 NUMBER OF SYMMETRY AOS:          148
 NUMBER OF CONTRACTIONS:          116   (   74A'  +   42A"  )
 NUMBER OF INNER CORE ORBITALS:     0   (    0A'  +    0A"  )
 NUMBER OF OUTER CORE ORBITALS:     2   (    2A'  +    0A"  )
 NUMBER OF VALENCE ORBITALS:       12   (    9A'  +    3A"  )


 NUCLEAR REPULSION ENERGY   40.39336013

 Eigenvalues of metric

         1 0.132E-02 0.180E-02 0.232E-02 0.328E-02 0.458E-02 0.725E-02 0.996E-02 0.103E-01
         2 0.190E-02 0.105E-01 0.216E-01 0.320E-01 0.374E-01 0.473E-01 0.758E-01 0.960E-01


 Contracted 2-electron integrals neglected if value below      1.0D-11
 AO integral compression algorithm  1   Integral accuracy      1.0D-11

     58.196 MB (compressed) written to integral file ( 51.9%)


 NUMBER OF SORTED TWO-ELECTRON INTEGRALS:   11777331.     BUFFER LENGTH:  32768
 NUMBER OF SEGMENTS:   1  SEGMENT LENGTH:   11777331      RECORD LENGTH: 524288

 Memory used in sort:      12.33 MW

 SORT1 READ    14086316. AND WROTE    11264009. INTEGRALS IN     33 RECORDS. CPU TIME:     0.17 SEC, REAL TIME:     0.62 SEC
 SORT2 READ    11264009. AND WROTE    11777331. INTEGRALS IN    222 RECORDS. CPU TIME:     0.31 SEC, REAL TIME:     0.39 SEC

 FILE SIZES:   FILE 1:    88.6 MBYTE,  FILE 4:   138.5 MBYTE,   TOTAL:    227.1 MBYTE

 OPERATOR DM      FOR CENTER  0  COORDINATES:    0.000000    0.000000    0.000000


 **********************************************************************************************************************************
 DATASETS  * FILE   NREC   LENGTH (MB)   RECORD NAMES
              1      19       76.32       500      610      700      900      950      970     1000      129      960     1100   
                                          VAR    BASINP    GEOM    SYMINP    ZMAT    AOBASIS   BASIS     P2S    ABASIS      S 
                                         1400     1410     1200     1210     1080     1600     1650     1300     1700   
                                           T        V       H0       H01     AOSYM     SMH    MOLCAS    ERIS     OPER   

 PROGRAMS   *        TOTAL       INT
 CPU TIMES  *         2.45      2.31
 REAL TIME  *         4.28 SEC
 DISK USED  *       217.02 MB
 **********************************************************************************************************************************


 Program * Restricted Hartree-Fock

 Orbital guess generated from atomic densities. Full valence occupancy:   11   3

 Initial occupancy:   7   2

 NELEC=   18   SYM=1   MS2= 0   THRE=1.0D-08   THRD=3.2D-06   THRG=3.2D-06  HFMA2=F  DIIS_START=2   DIIS_MAX=10   DIIS_INCORE=F

 Level shifts:    0.00 (CLOSED)    0.00 (OPEN)    0.30 (GAP_MIN)

 ITER           ETOT              DE          GRAD        DDIFF     DIIS  NEXP   TIME(IT)  TIME(TOT)  DIAG
   1     -115.05367149    -115.05367149     0.00D+00     0.96D-01     0     0       0.08      0.16    start
   2     -115.08195454      -0.02828304     0.83D-02     0.11D-01     1     0       0.09      0.25    diag
   3     -115.08897280      -0.00701827     0.45D-02     0.35D-02     2     0       0.09      0.34    diag
   4     -115.08947535      -0.00050255     0.87D-03     0.93D-03     3     0       0.08      0.42    diag
   5     -115.08950547      -0.00003012     0.17D-03     0.25D-03     4     0       0.08      0.50    diag
   6     -115.08950678      -0.00000131     0.32D-04     0.65D-04     5     0       0.09      0.59    diag
   7     -115.08950683      -0.00000005     0.68D-05     0.12D-04     6     0       0.08      0.67    diag
   8     -115.08950684      -0.00000000     0.21D-05     0.32D-05     7     0       0.09      0.76    fixocc
   9     -115.08950684      -0.00000000     0.56D-06     0.10D-05     8     0       0.08      0.84    diag
  10     -115.08950684      -0.00000000     0.10D-06     0.17D-06     0     0       0.09      0.93    diag/orth

 Final occupancy:   7   2

 !RHF STATE 1.1 Energy               -115.089506838515
  RHF One-electron energy            -237.070790732437
  RHF Two-electron energy              81.587923760245
  RHF Kinetic energy                  114.963351932914
  RHF Nuclear energy                   40.393360133677
  RHF Virial quotient                  -1.001097348881

 !RHF STATE 1.1 Dipole moment           0.56426076     0.40864629     0.00000000
 Dipole moment /Debye                   1.43420779     1.03867527     0.00000000

 Orbital energies:

           1.1          2.1          3.1          4.1          5.1          6.1          7.1          8.1          9.1
    -20.551140   -11.268611    -1.354817    -0.924185    -0.688855    -0.591174    -0.501239     0.138794     0.178965

           1.2          2.2          3.2          4.2
     -0.618744    -0.448710     0.220297     0.404145


 HOMO      2.2    -0.448710 =     -12.2100eV
 LUMO      8.1     0.138794 =       3.7768eV
 LUMO-HOMO         0.587504 =      15.9868eV

 Orbitals saved in record  2100.2


 **********************************************************************************************************************************
 DATASETS  * FILE   NREC   LENGTH (MB)   RECORD NAMES
              1      19       76.32       500      610      700      900      950      970     1000      129      960     1100   
                                          VAR    BASINP    GEOM    SYMINP    ZMAT    AOBASIS   BASIS     P2S    ABASIS      S 
                                         1400     1410     1200     1210     1080     1600     1650     1300     1700   
                                           T        V       H0       H01     AOSYM     SMH    MOLCAS    ERIS     OPER   

              2       4        0.58       700     1000      520     2100   
                                         GEOM     BASIS   MCVARS     RHF  

 PROGRAMS   *        TOTAL    HF-SCF       INT
 CPU TIMES  *         3.38      0.93      2.31
 REAL TIME  *         5.41 SEC
 DISK USED  *       217.02 MB
 **********************************************************************************************************************************


 PROGRAM * PAPT (Closed-shell)     Authors: C. Hampel, H.-J. Werner, 1991, P.J. Knowles, 2021


 Convergence thresholds:  THRVAR = 1.00D-08  THRDEN = 1.00D-06

 Number of core orbitals:           2 (   2   0 )
 Number of closed-shell orbitals:   7 (   5   2 )
 Number of external orbitals:     107 (  67  40 )

 Molecular orbitals read from record     2100.2  Type=RHF/CANONICAL  

 Number of N-1 electron functions:               7
 Number of N-2 electron functions:              28
 Number of singly external CSFs:               415
 Number of doubly external CSFs:            142265
 Total number of CSFs:                      142681

 Length of J-op  integral file:               0.00 MB
 Length of K-op  integral file:               0.56 MB

 Integral transformation finished. Total CPU:   0.15 sec, npass=  1  Memory used:   0.30 MW

 Reference energy:                   -115.08950684

                        CORR.ENERGY   TOTAL ENERGY   ENERGY CHANGE
 MP2:                   -0.42791584  -115.51742268    -0.42791584

 SCS-MP2 correlation energy:           -0.42846857   (PS=  1.200000  PT=  0.333333)
 SCS-MP2 total energy:               -115.51797540
 Iteration:   1     0.2036D+00
 Iteration:   2     0.2348D+00
 Iteration:   3     0.5459D-01
 Iteration:   4     0.3598D-01
 Iteration:   5     0.5182D+01
 Iteration:   6     0.1483D-01
 Iteration:   7     0.1629D-01
 Iteration:   8     0.1324D-01
 Iteration:   9     0.2469D-02
 Iteration:  10     0.3675D-02
 Iteration:  11     0.9928D-03
 Iteration:  12     0.1001D-02
 Iteration:  13     0.8736D-03
 Iteration:  14     0.4056D-03
 Iteration:  15     0.1209D-02
 Iteration:  16     0.1216D-03
 Iteration:  17     0.9972D-04
 PAPT operator written to  7000.1
 PAPT orbitals and eigenvalues written to  7000.2

 MP3(D):                -0.44323393  -115.53274077    -0.01531809



 RESULTS
 =======

  Reference energy                   -115.089506838515
  MP3 singlet pair energy              -0.305740494179
  MP3 triplet pair energy              -0.137493437841
  MP3 correlation energy               -0.443233932020

 !MP3 total energy                   -115.532740770534

 Timing summary (sec):

 STEP                 CPU(USER)    SYS     CPU(TOT)    WALL
 Transformation          0.16      0.02      0.18      0.26
 CCSD iterations         4.34      0.04      4.38      0.89

 Program statistics:

 Available memory in ccsd:               805306165
 Min. memory needed in ccsd:                470717
 Max. memory used in ccsd:                  585702
 Max. memory used in cckext:                692419 ( 1 integral passes)



 **********************************************************************************************************************************
 DATASETS  * FILE   NREC   LENGTH (MB)   RECORD NAMES
              1      21       78.68       500      610      700      900      950      970     1000      129      960     1100   
                                          VAR    BASINP    GEOM    SYMINP    ZMAT    AOBASIS   BASIS     P2S    ABASIS      S 
                                         1400     1410     1200     1210     1080     1600     1650     1300     1700     1380   
                                           T        V       H0       H01     AOSYM     SMH    MOLCAS    ERIS     OPER     JKOP   
                                         7000   
                                        PAPT AO    

              2       5        0.85       700     1000      520     2100     7000   
                                         GEOM     BASIS   MCVARS     RHF     PAPT   

 PROGRAMS   *        TOTAL      PAPT    HF-SCF       INT
 CPU TIMES  *         4.21      0.82      0.93      2.31
 REAL TIME  *         6.60 SEC
 DISK USED  *       217.02 MB
 **********************************************************************************************************************************


 PROGRAM * MP4 (Closed-shell)     Authors: C. Hampel, H.-J. Werner, 1991, M. Deegan, P.J. Knowles, 1992


 Convergence thresholds:  THRVAR = 1.00D-08  THRDEN = 1.00D-06

 MP4(T)     terms to be evaluated (factor= 0.000)


 Number of core orbitals:           2 (   2   0 )
 Number of closed-shell orbitals:   7 (   5   2 )
 Number of external orbitals:     107 (  67  40 )

 Molecular orbitals read from record     7000.2  Type=PAPT/CANONICAL (state 1.1)

 Number of N-1 electron functions:               7
 Number of N-2 electron functions:              28
 Number of singly external CSFs:               415
 Number of doubly external CSFs:            142265
 Total number of CSFs:                      142681

 Length of J-op  integral file:               0.00 MB
 Length of K-op  integral file:               0.56 MB

 Memory could be reduced to 6.14 Mwords without degradation in triples

 Integral transformation finished. Total CPU:   0.35 sec, npass=  1  Memory used:   2.19 MW
 Orbital energies read from record       7000.2  Type=PAPT/CANONICAL (state 1.1)

 Reference energy:                   -115.08950684

                        CORR.ENERGY   TOTAL ENERGY   ENERGY CHANGE
 MP2:                   -0.44774088  -115.53724771    -0.44774088

 SCS-MP2 correlation energy:           -0.45043535   (PS=  1.200000  PT=  0.333333)
 SCS-MP2 total energy:               -115.53994219

 MP3(D):                -0.44794213  -115.53744897    -0.00020126
 MP4(DQ):               -0.44386222  -115.53336905     0.00407992
 MP4(SDQ):              -0.44662111  -115.53612795    -0.00275890

 Norm of t1 vector:      0.03880465      S-energy:    -0.00275890      T1 diagnostic:  0.00733339

 Largest off-diagonal element in interal  block of Fock matrix:  0.12D+00
 Largest off-diagonal element in external block of Fock matrix:  0.44D+00


 Total CPU time for triples:      2.71 sec


 RESULTS
 =======

  Reference energy                   -115.089506838515
  MP4(SDQ) singlet pair energy         -0.306603828745
  MP4(SDQ) triplet pair energy         -0.137258387677
  MP4(SDQ) correlation energy          -0.446621112754

  Triples contribution                 -0.016484114332
  Total correlation energy             -0.463105227086

  MP4(SDQ) total energy              -115.536127951269
 !MP4(SDTQ) total energy             -115.552612065601

 Timing summary (sec):

 STEP                 CPU(USER)    SYS     CPU(TOT)    WALL
 Transformation          0.45      0.06      0.51      0.83
 CCSD iterations         4.94      0.01      4.95      0.45
 Triples                 2.71      0.14      2.85      2.90

 Program statistics:

 Available memory in ccsd:               805306165
 Min. memory needed in ccsd:                470717
 Max. memory used in ccsd:                  585702
 Max. memory used in cckext:                692419 ( 1 integral passes)



 **********************************************************************************************************************************
 DATASETS  * FILE   NREC   LENGTH (MB)   RECORD NAMES
              1      22       95.32       500      610      700      900      950      970     1000      129      960     1100   
                                          VAR    BASINP    GEOM    SYMINP    ZMAT    AOBASIS   BASIS     P2S    ABASIS      S 
                                         1400     1410     1200     1210     1080     1600     1650     1300     1700     1380   
                                           T        V       H0       H01     AOSYM     SMH    MOLCAS    ERIS     OPER     JKOP   
                                         7000     1380(1)
                                        PAPT AO   JKOP   

              2       5        0.85       700     1000      520     2100     7000   
                                         GEOM     BASIS   MCVARS     RHF     PAPT   

 PROGRAMS   *        TOTAL       MP4      PAPT    HF-SCF       INT
 CPU TIMES  *         7.82      3.62      0.82      0.93      2.31
 REAL TIME  *        10.83 SEC
 DISK USED  *       217.02 MB
 **********************************************************************************************************************************

 Dump information in style XML to xml output                                                                      

 Orbitals will not be exported.

 **********************************************************************************************************************************

 MP4/cc-pVTZ energy=   -115.552612065601

             MP4            PAPT          HF-SCF
   -115.55261207   -115.53274077   -115.08950684
 **********************************************************************************************************************************
 Molpro calculation terminated
