
 Working directory              : /home/jovyan/scratch/molpro.8HQ5py16zp/
 Global scratch directory       : /home/jovyan/scratch/molpro.8HQ5py16zp/
 Wavefunction directory         : /home/jovyan/wfu/
 Main file repository           : /home/jovyan/scratch/molpro.8HQ5py16zp/

 id        : cardiff

 Nodes                nprocs
 jupyter-c-2efrancisan    1
 GA implementation: MPI file
 GA implementation (serial work in mppx): MPI file

 Using customized tuning parameters: mindgm=1; mindgv=20; mindgc=4; mindgr=1; noblas=0; minvec=7
 default implementation of scratch files=df  


 Variables initialized (1031), CPU time= 0.01 sec
 
 
 
 geometry={
           15
     C         -0.50973845     -4.57409193      4.82078256
     H          0.12390675     -4.81524791      5.68716964
     H          0.15526735     -4.38166597      3.96691327
     H         -1.11467319     -5.46282563      4.58988793
     C         -1.40199201     -3.35538275      5.11048399
     H         -2.04014145     -3.14723348      4.23950113
     H         -2.08767775     -3.61035058      5.93828216
     C         -0.60901681     -2.13869195      5.49603240
     H          0.06148939     -2.28076413      6.35155563
     C         -0.61956324     -0.92707393      4.91947698
     H          0.03865347     -0.16350647      5.34781832
     C         -1.43816619     -0.47482642      3.74666948
     H         -2.11673732      0.34474903      4.03474932
     H         -0.79185021     -0.07516951      2.94871813
     H         -2.04903062     -1.27818940      3.31602797
 }
 basis=cc-pVDZ
 angstrom
 
 
 hf; papt;mp2
 
 
 
 {put,xml;noorbitals,nobasis}
 Commands initialized (841), CPU time= 0.01 sec, 704 directives.
 Default parameters read. Elapsed time= 0.08 sec

 Checking input...
 Passed
1


                                         ***  PROGRAM SYSTEM MOLPRO  ***
                                       Copyright, TTI GmbH Stuttgart, 2015
                                    Version 2023.1 linked Mon Jun  5 13:27:10 2023


 **********************************************************************************************************************************
 LABEL *                                                                                                                                                                 
  (16 PROC) 64 bit serial version                                                        DATE: 03-Aug-23          TIME: 16:41:36  
 **********************************************************************************************************************************

 SHA1:             9738a14712571edd23541b6d7c4f3a3d766f8287
 **********************************************************************************************************************************

 Memory per process:       805 MW
 Total memory per node:   1074 MW
 Total GA space:           268 MW

 GA preallocation disabled
 GA check enabled

 Geometry recognized as XYZ


 Variable memory set to 805.3 MW

 SETTING BASIS          =    CC-PVDZ


 Recomputing integrals since basis changed


 Using spherical harmonics

 Library entry C      S cc-pVDZ              selected for orbital group  1
 Library entry C      P cc-pVDZ              selected for orbital group  1
 Library entry C      D cc-pVDZ              selected for orbital group  1
 Library entry H      S cc-pVDZ              selected for orbital group  2
 Library entry H      P cc-pVDZ              selected for orbital group  2


 PROGRAM * SEWARD (Integral evaluation for generally contracted gaussian basis sets)     Author: Roland Lindh, 1990

 Geometry written to block  1 of record 700


 Point group  C1  



 ATOMIC COORDINATES

 NR  ATOM    CHARGE       X              Y              Z

   1  C       6.00   -0.963266066   -8.643781017    9.109958745
   2  H       1.00    0.234149822   -9.099499772   10.747193044
   3  H       1.00    0.293412768   -8.280148653    7.496379640
   4  H       1.00   -2.106427048  -10.323244307    8.673631130
   5  C       6.00   -2.649380928   -6.340754441    9.657415105
   6  H       1.00   -3.855308596   -5.947409327    8.011496041
   7  H       1.00   -3.945139184   -6.822573810   11.221726933
   8  C       6.00   -1.150874976   -4.041542050   10.385996008
   9  H       1.00    0.116198107   -4.310019561   12.002700606
  10  C       6.00   -1.170804840   -1.751915825    9.296464169
  11  H       1.00    0.073044472   -0.308982448   10.105911989
  12  C       6.00   -2.717740221   -0.897291891    7.080179197
  13  H       1.00   -4.000053813    0.651481248    7.624571196
  14  H       1.00   -1.496380029   -0.142049787    5.572269684
  15  H       1.00   -3.872106693   -2.415427901    6.266384685

 Bond lengths in Bohr (Angstrom)

 1-2  2.078946980  1-3  2.077283734  1-4  2.077930644  1-5  2.906307486  5-6  2.077987364
     ( 1.100131364)     ( 1.099251213)     ( 1.099593543)     ( 1.537951690)     ( 1.099623558)

  5- 7  2.087632836   5- 8  2.839494292   8- 9  2.071542451   8-10  2.535717863  10-11  2.069884928
       ( 1.104727721)       ( 1.502595670)       ( 1.096213057)       ( 1.341844106)       ( 1.095335933)

 10-12  2.834662276  12-13  2.083120024  12-14  2.082282990  12-15  2.073538137
       ( 1.500038677)       ( 1.102339644)       ( 1.101896705)       ( 1.097269128)

 Bond angles

  1-5-6  109.72356774   1-5-7  108.56337849   1-5-8  112.56980816   2-1-3  107.55756075

  2-1-4  107.76199253   2-1-5  111.07029051   3-1-4  108.13106820   3-1-5  111.01286986

  4- 1- 5  111.15247801   5- 8- 9  114.71479820   5- 8-10  128.07881891   6- 5- 7  106.08143653

  6- 5- 8  110.86863599   7- 5- 8  108.79433619   8-10-11  117.17453286   8-10-12  127.76768194

  9- 8-10  117.20430848  10-12-13  110.84008185  10-12-14  110.82073257  10-12-15  112.94985411

 11-10-12  115.05685232  13-12-14  106.29902715  13-12-15  107.71061743  14-12-15  107.93148267

 NUCLEAR CHARGE:                   40
 NUMBER OF PRIMITIVE AOS:         205
 NUMBER OF SYMMETRY AOS:          200
 NUMBER OF CONTRACTIONS:          120   (  120A   )
 NUMBER OF INNER CORE ORBITALS:     0   (    0A   )
 NUMBER OF OUTER CORE ORBITALS:     5   (    5A   )
 NUMBER OF VALENCE ORBITALS:       30   (   30A   )


 NUCLEAR REPULSION ENERGY  170.48774625


 Eigenvalues of metric

         1 0.167E-02 0.238E-02 0.426E-02 0.665E-02 0.138E-01 0.150E-01 0.162E-01 0.208E-01


 Contracted 2-electron integrals neglected if value below      1.0D-11
 AO integral compression algorithm  1   Integral accuracy      1.0D-11

     109.052 MB (compressed) written to integral file ( 49.5%)


 NUMBER OF SORTED TWO-ELECTRON INTEGRALS:   26357430.     BUFFER LENGTH:  32768
 NUMBER OF SEGMENTS:   2  SEGMENT LENGTH:   15997996      RECORD LENGTH: 524288

 Memory used in sort:      16.56 MW

 SORT1 READ    27537172. AND WROTE    24531253. INTEGRALS IN     72 RECORDS. CPU TIME:     0.35 SEC, REAL TIME:     0.77 SEC
 SORT2 READ    24531253. AND WROTE    26357430. INTEGRALS IN    416 RECORDS. CPU TIME:     0.50 SEC, REAL TIME:     0.63 SEC

 FILE SIZES:   FILE 1:   139.8 MBYTE,  FILE 4:   302.1 MBYTE,   TOTAL:    441.9 MBYTE

 OPERATOR DM      FOR CENTER  0  COORDINATES:    0.000000    0.000000    0.000000


 **********************************************************************************************************************************
 DATASETS  * FILE   NREC   LENGTH (MB)   RECORD NAMES
              1      19      122.01       500      610      700      900      950      970     1000      129      960     1100   
                                          VAR    BASINP    GEOM    SYMINP    ZMAT    AOBASIS   BASIS     P2S    ABASIS      S 
                                         1400     1410     1200     1210     1080     1600     1650     1300     1700   
                                           T        V       H0       H01     AOSYM     SMH    MOLCAS    ERIS     OPER   

 PROGRAMS   *        TOTAL       INT
 CPU TIMES  *         4.66      4.53
 REAL TIME  *         6.45 SEC
 DISK USED  *       421.99 MB
 **********************************************************************************************************************************


 Program * Restricted Hartree-Fock

 Orbital guess generated from atomic densities. Full valence occupancy:   35

 Initial occupancy:  20

 NELEC=   40   SYM=1   MS2= 0   THRE=1.0D-08   THRD=3.2D-06   THRG=3.2D-06  HFMA2=F  DIIS_START=2   DIIS_MAX=10   DIIS_INCORE=F

 Level shifts:    0.00 (CLOSED)    0.00 (OPEN)    0.30 (GAP_MIN)

 ITER           ETOT              DE          GRAD        DDIFF     DIIS  NEXP   TIME(IT)  TIME(TOT)  DIAG
   1     -195.09119481    -195.09119481     0.00D+00     0.93D-01     0     0       0.27      0.54    start
   2     -195.14977203      -0.05857723     0.43D-02     0.92D-02     1     0       0.27      0.81    diag
   3     -195.15626062      -0.00648858     0.16D-02     0.33D-02     2     0       0.27      1.08    diag
   4     -195.15725196      -0.00099134     0.51D-03     0.12D-02     3     0       0.28      1.36    diag
   5     -195.15727006      -0.00001810     0.74D-04     0.21D-03     4     0       0.28      1.64    diag
   6     -195.15727278      -0.00000272     0.33D-04     0.66D-04     5     0       0.28      1.92    diag
   7     -195.15727289      -0.00000011     0.54D-05     0.15D-04     6     0       0.28      2.20    diag
   8     -195.15727289      -0.00000001     0.15D-05     0.37D-05     7     0       0.28      2.48    fixocc
   9     -195.15727289      -0.00000000     0.37D-06     0.98D-06     8     0       0.27      2.75    diag
  10     -195.15727289      -0.00000000     0.93D-07     0.20D-06     0     0       0.28      3.03    diag/orth

 Final occupancy:  20

 !RHF STATE 1.1 Energy               -195.157272894663
  RHF One-electron energy            -599.443027983852
  RHF Two-electron energy             233.798008838579
  RHF Kinetic energy                  194.783520137202
  RHF Nuclear energy                  170.487746250610
  RHF Virial quotient                  -1.001918810982

 !RHF STATE 1.1 Dipole moment          -0.06535058    -0.01071719    -0.06309646
 Dipole moment /Debye                  -0.16610461    -0.02724039    -0.16037520

 Orbital energies:

           1.1          2.1          3.1          4.1          5.1          6.1          7.1          8.1          9.1         10.1
    -11.229759   -11.229359   -11.227268   -11.226017   -11.222851    -1.082503    -1.012576    -0.924624    -0.840018    -0.716932

          11.1         12.1         13.1         14.1         15.1         16.1         17.1         18.1         19.1         20.1
     -0.649032    -0.592291    -0.583164    -0.558084    -0.528474    -0.514470    -0.508246    -0.480942    -0.457921    -0.338977

          21.1         22.1
      0.173605     0.189932


 HOMO     20.1    -0.338977 =      -9.2240eV
 LUMO     21.1     0.173605 =       4.7240eV
 LUMO-HOMO         0.512582 =      13.9481eV

 Orbitals saved in record  2100.2


 **********************************************************************************************************************************
 DATASETS  * FILE   NREC   LENGTH (MB)   RECORD NAMES
              1      19      122.01       500      610      700      900      950      970     1000      129      960     1100   
                                          VAR    BASINP    GEOM    SYMINP    ZMAT    AOBASIS   BASIS     P2S    ABASIS      S 
                                         1400     1410     1200     1210     1080     1600     1650     1300     1700   
                                           T        V       H0       H01     AOSYM     SMH    MOLCAS    ERIS     OPER   

              2       4        0.84       700     1000      520     2100   
                                         GEOM     BASIS   MCVARS     RHF  

 PROGRAMS   *        TOTAL    HF-SCF       INT
 CPU TIMES  *         7.69      3.03      4.53
 REAL TIME  *         9.74 SEC
 DISK USED  *       421.99 MB
 **********************************************************************************************************************************


 PROGRAM * PAPT (Closed-shell)     Authors: C. Hampel, H.-J. Werner, 1991, P.J. Knowles, 2021


 Convergence thresholds:  THRVAR = 1.00D-08  THRDEN = 1.00D-06

 Number of core orbitals:           5 (   5 )
 Number of closed-shell orbitals:  15 (  15 )
 Number of external orbitals:     100 ( 100 )

 Molecular orbitals read from record     2100.2  Type=RHF/CANONICAL  

 Number of N-1 electron functions:              15
 Number of N-2 electron functions:             120
 Number of singly external CSFs:              1500
 Number of doubly external CSFs:           1125750
 Total number of CSFs:                     1127251

 Length of J-op  integral file:               0.00 MB
 Length of K-op  integral file:               1.05 MB

 Integral transformation finished. Total CPU:   0.78 sec, npass=  1  Memory used:   3.16 MW

 Reference energy:                   -195.15727289

                        CORR.ENERGY   TOTAL ENERGY   ENERGY CHANGE
 MP2:                   -0.70606162  -195.86333451    -0.70606162

 SCS-MP2 correlation energy:           -0.70699672   (PS=  1.200000  PT=  0.333333)
 SCS-MP2 total energy:               -195.86426962
 Iteration:   1     0.2263D+00
 Iteration:   2     0.1035D+01
 Iteration:   3     0.8403D-01
 Iteration:   4     0.1901D+00
 Iteration:   5     0.3402D-01
 Iteration:   6     0.3367D-01
 Iteration:   7     0.2504D-01
 Iteration:   8     0.1385D-01
 Iteration:   9     0.4387D-01
 Iteration:  10     0.7615D-02
 Iteration:  11     0.2565D-01
 Iteration:  12     0.6245D-02
 Iteration:  13     0.8155D-02
 Iteration:  14     0.4057D-02
 Iteration:  15     0.2547D-02
 Iteration:  16     0.7182D-02
 Iteration:  17     0.8122D-03
 Iteration:  18     0.1121D-02
 Iteration:  19     0.6194D-03
 Iteration:  20     0.2237D-03
 Iteration:  21     0.4715D-03
 Iteration:  22     0.1411D-03
 Iteration:  23     0.8196D-04
 PAPT operator written to  7000.1
 PAPT orbitals and eigenvalues written to  7000.2

 MP3(D):                -0.76425214  -195.92152503    -0.05819052



 RESULTS
 =======

  Reference energy                   -195.157272894663
  MP3 singlet pair energy              -0.530169941759
  MP3 triplet pair energy              -0.234082197088
  MP3 correlation energy               -0.764252138847

 !MP3 total energy                   -195.921525033510

 Timing summary (sec):

 STEP                 CPU(USER)    SYS     CPU(TOT)    WALL
 Transformation          0.86      0.09      0.95      1.13
 CCSD iterations        19.51      0.24     19.75     12.14

 Program statistics:

 Available memory in ccsd:               805305448
 Min. memory needed in ccsd:               2984299
 Max. memory used in ccsd:                 3969799
 Max. memory used in cckext:               3641626 ( 1 integral passes)



 **********************************************************************************************************************************
 DATASETS  * FILE   NREC   LENGTH (MB)   RECORD NAMES
              1      21      142.12       500      610      700      900      950      970     1000      129      960     1100   
                                          VAR    BASINP    GEOM    SYMINP    ZMAT    AOBASIS   BASIS     P2S    ABASIS      S 
                                         1400     1410     1200     1210     1080     1600     1650     1300     1700     1380   
                                           T        V       H0       H01     AOSYM     SMH    MOLCAS    ERIS     OPER     JKOP   
                                         7000   
                                        PAPT AO    

              2       5        1.27       700     1000      520     2100     7000   
                                         GEOM     BASIS   MCVARS     RHF     PAPT   

 PROGRAMS   *        TOTAL      PAPT    HF-SCF       INT
 CPU TIMES  *        20.10     12.41      3.03      4.53
 REAL TIME  *        23.07 SEC
 DISK USED  *       421.99 MB
 **********************************************************************************************************************************


 PROGRAM * MP2 (Closed-shell)     Authors: C. Hampel, H.-J. Werner, 1991, M. Deegan, P.J. Knowles, 1992


 Convergence thresholds:  THRVAR = 1.00D-08  THRDEN = 1.00D-06

 Number of core orbitals:           5 (   5 )
 Number of closed-shell orbitals:  15 (  15 )
 Number of external orbitals:     100 ( 100 )

 Molecular orbitals read from record     7000.2  Type=PAPT/CANONICAL (state 1.1)

 Number of N-1 electron functions:              15
 Number of N-2 electron functions:             120
 Number of singly external CSFs:              1500
 Number of doubly external CSFs:           1125750
 Total number of CSFs:                     1127251

 Length of J-op  integral file:               0.00 MB
 Length of K-op  integral file:               1.05 MB

 Integral transformation finished. Total CPU:   0.76 sec, npass=  1  Memory used:   3.16 MW
 Orbital energies read from record       7000.2  Type=PAPT/CANONICAL (state 1.1)

 Memory needed for MP2:                      0.07 MW

 SCS-MP2 correlation energy:           -0.781440658102   (PS=  1.200000  PT=  0.333333)
 SCS-MP2 total energy:               -195.938713552765


  Reference energy                   -195.157272894663
  MP2 singlet pair energy              -0.517572071330
  MP2 triplet pair energy              -0.257712062956
  MP2 correlation energy               -0.775284134286

 !MP2 total energy                   -195.932557028949


 **********************************************************************************************************************************
 DATASETS  * FILE   NREC   LENGTH (MB)   RECORD NAMES
              1      21      142.12       500      610      700      900      950      970     1000      129      960     1100   
                                          VAR    BASINP    GEOM    SYMINP    ZMAT    AOBASIS   BASIS     P2S    ABASIS      S 
                                         1400     1410     1200     1210     1080     1600     1650     1300     1700     1380   
                                           T        V       H0       H01     AOSYM     SMH    MOLCAS    ERIS     OPER     JKOP   
                                         7000   
                                        PAPT AO    

              2       5        1.27       700     1000      520     2100     7000   
                                         GEOM     BASIS   MCVARS     RHF     PAPT   

 PROGRAMS   *        TOTAL       MP2      PAPT    HF-SCF       INT
 CPU TIMES  *        21.33      1.23     12.41      3.03      4.53
 REAL TIME  *        24.49 SEC
 DISK USED  *       421.99 MB
 **********************************************************************************************************************************

 Dump information in style XML to xml output                                                                      

 Orbitals will not be exported.

 **********************************************************************************************************************************

 MP2/cc-pVDZ energy=   -195.932557028949

             MP2            PAPT          HF-SCF
   -195.93255703   -195.92152503   -195.15727289
 **********************************************************************************************************************************
 Molpro calculation terminated
