
 Working directory              : /home/jovyan/scratch/molpro.MZf1R1zda4/
 Global scratch directory       : /home/jovyan/scratch/molpro.MZf1R1zda4/
 Wavefunction directory         : /home/jovyan/wfu/
 Main file repository           : /home/jovyan/scratch/molpro.MZf1R1zda4/

 id        : cardiff

 Nodes                nprocs
 jupyter-c-2efrancisan    1
 GA implementation: MPI file
 GA implementation (serial work in mppx): MPI file

 Using customized tuning parameters: mindgm=1; mindgv=20; mindgc=4; mindgr=1; noblas=0; minvec=7
 default implementation of scratch files=df  


 Variables initialized (1031), CPU time= 0.00 sec
 
 
 
 geometry={
 8
  4HF-TS (Full point group D4h)
  H 0.000000 1.264867 0.000000
  H 1.264867 0.000000 0.000000
  H 0.000000 -1.264867 0.000000
  H -1.264867 0.000000 0.000000
  F 1.142134 1.142134 0.000000
  F 1.142134 -1.142134 0.000000
  F -1.142134 -1.142134 0.000000
  F -1.142134 1.142134 0.000000
 }
 basis=cc-pVTZ
 angstrom
 
 
 hf; ccsd
 
 
 
 {put,xml;noorbitals,nobasis}
 Commands initialized (841), CPU time= 0.01 sec, 704 directives.
 Default parameters read. Elapsed time= 0.08 sec

 Checking input...
 Passed
1


                                         ***  PROGRAM SYSTEM MOLPRO  ***
                                       Copyright, TTI GmbH Stuttgart, 2015
                                    Version 2023.1 linked Mon Jun  5 13:27:10 2023


 **********************************************************************************************************************************
 LABEL *                                                                                                                                                                 
  (16 PROC) 64 bit serial version                                                        DATE: 03-Aug-23          TIME: 13:47:37  
 **********************************************************************************************************************************

 SHA1:             9738a14712571edd23541b6d7c4f3a3d766f8287
 **********************************************************************************************************************************

 Memory per process:       805 MW
 Total memory per node:   1074 MW
 Total GA space:           268 MW

 GA preallocation disabled
 GA check enabled

 Geometry recognized as XYZ


 Variable memory set to 805.3 MW

 SETTING BASIS          =    CC-PVTZ


 Recomputing integrals since basis changed


 Using spherical harmonics

 Library entry H      S cc-pVTZ              selected for orbital group  1
 Library entry H      P cc-pVTZ              selected for orbital group  1
 Library entry H      D cc-pVTZ              selected for orbital group  1
 Library entry F      S cc-pVTZ              selected for orbital group  2
 Library entry F      P cc-pVTZ              selected for orbital group  2
 Library entry F      D cc-pVTZ              selected for orbital group  2
 Library entry F      F cc-pVTZ              selected for orbital group  2


 PROGRAM * SEWARD (Integral evaluation for generally contracted gaussian basis sets)     Author: Roland Lindh, 1990

 Geometry written to block  1 of record 700


 Point group  D2h 



 ATOMIC COORDINATES

 NR  ATOM    CHARGE       X              Y              Z

   1  H       1.00    0.000000000    2.390252214    0.000000000
   2  H       1.00    0.000000000   -2.390252214    0.000000000
   3  H       1.00    2.390252214    0.000000000    0.000000000
   4  H       1.00   -2.390252214    0.000000000    0.000000000
   5  F       9.00    2.158320458    2.158320458    0.000000000
   6  F       9.00    2.158320458   -2.158320458    0.000000000
   7  F       9.00   -2.158320458   -2.158320458    0.000000000
   8  F       9.00   -2.158320458    2.158320458    0.000000000

 Bond lengths in Bohr (Angstrom)

 1-5  2.170746309  1-8  2.170746309  2-6  2.170746309  2-7  2.170746309  3-5  2.170746309
     ( 1.148709477)     ( 1.148709477)     ( 1.148709477)     ( 1.148709477)     ( 1.148709477)

 3-6  2.170746309  4-7  2.170746309  4-8  2.170746309
     ( 1.148709477)     ( 1.148709477)     ( 1.148709477)

 Bond angles

  1-5-3  102.26686399   1-8-4  102.26686399   2-6-3  102.26686399   2-7-4  102.26686399

  5-1-8  167.73313601   5-3-6  167.73313601   6-2-7  167.73313601   7-4-8  167.73313601

 NUCLEAR CHARGE:                   40
 NUMBER OF PRIMITIVE AOS:         256
 NUMBER OF SYMMETRY AOS:          232
 NUMBER OF CONTRACTIONS:          176   (   34Ag  +   30B3u +   30B2u +   26B1g +   16B1u +   14B2g +   14B3g +   12Au  )
 NUMBER OF INNER CORE ORBITALS:     0   (    0Ag  +    0B3u +    0B2u +    0B1g +    0B1u +    0B2g +    0B3g +    0Au  )
 NUMBER OF OUTER CORE ORBITALS:     4   (    1Ag  +    1B3u +    1B2u +    1B1g +    0B1u +    0B2g +    0B3g +    0Au  )
 NUMBER OF VALENCE ORBITALS:       20   (    5Ag  +    4B3u +    4B2u +    3B1g +    1B1u +    1B2g +    1B3g +    1Au  )


 NUCLEAR REPULSION ENERGY  150.66635073


 Eigenvalues of metric

         1 0.385E-02 0.499E-02 0.818E-02 0.250E-01 0.267E-01 0.282E-01 0.561E-01 0.595E-01
         2 0.336E-02 0.721E-02 0.141E-01 0.273E-01 0.486E-01 0.568E-01 0.896E-01 0.117E+00
         3 0.336E-02 0.721E-02 0.141E-01 0.273E-01 0.486E-01 0.568E-01 0.896E-01 0.117E+00
         4 0.390E-02 0.140E-01 0.183E-01 0.500E-01 0.517E-01 0.155E+00 0.174E+00 0.195E+00
         5 0.539E-01 0.110E+00 0.235E+00 0.431E+00 0.443E+00 0.531E+00 0.870E+00 0.879E+00
         6 0.517E-01 0.143E+00 0.267E+00 0.443E+00 0.463E+00 0.686E+00 0.885E+00 0.950E+00
         7 0.517E-01 0.143E+00 0.267E+00 0.443E+00 0.463E+00 0.686E+00 0.885E+00 0.950E+00
         8 0.500E-01 0.248E+00 0.266E+00 0.370E+00 0.675E+00 0.712E+00 0.100E+01 0.110E+01


 Contracted 2-electron integrals neglected if value below      1.0D-11
 AO integral compression algorithm  1   Integral accuracy      1.0D-11

     108.528 MB (compressed) written to integral file ( 54.7%)


 NUMBER OF SORTED TWO-ELECTRON INTEGRALS:   15789716.     BUFFER LENGTH:  32768
 NUMBER OF SEGMENTS:   1  SEGMENT LENGTH:   15789716      RECORD LENGTH: 524288

 Memory used in sort:      16.35 MW

 SORT1 READ    24860876. AND WROTE    15764354. INTEGRALS IN     46 RECORDS. CPU TIME:     1.01 SEC, REAL TIME:     1.30 SEC
 SORT2 READ    15764354. AND WROTE    15789716. INTEGRALS IN    414 RECORDS. CPU TIME:     0.55 SEC, REAL TIME:     0.64 SEC

 FILE SIZES:   FILE 1:   139.3 MBYTE,  FILE 4:   193.0 MBYTE,   TOTAL:    332.4 MBYTE

 OPERATOR DM      FOR CENTER  0  COORDINATES:    0.000000    0.000000    0.000000


 **********************************************************************************************************************************
 DATASETS  * FILE   NREC   LENGTH (MB)   RECORD NAMES
              1      19       96.20       500      610      700      900      950      970     1000      129      960     1100   
                                          VAR    BASINP    GEOM    SYMINP    ZMAT    AOBASIS   BASIS     P2S    ABASIS      S 
                                         1400     1410     1200     1210     1080     1600     1650     1300     1700   
                                           T        V       H0       H01     AOSYM     SMH    MOLCAS    ERIS     OPER   

 PROGRAMS   *        TOTAL       INT
 CPU TIMES  *         7.71      7.58
 REAL TIME  *         9.21 SEC
 DISK USED  *       317.45 MB
 **********************************************************************************************************************************


 Program * Restricted Hartree-Fock

 Orbital guess generated from atomic densities. Full valence occupancy:    6   5   5   4   1   1   1   1


 Initial occupancy:   4   4   4   4   1   1   1   1

 NELEC=   40   SYM=1   MS2= 0   THRE=1.0D-08   THRD=3.2D-06   THRG=3.2D-06  HFMA2=F  DIIS_START=2   DIIS_MAX=10   DIIS_INCORE=F

 Level shifts:    0.00 (CLOSED)    0.00 (OPEN)    0.30 (GAP_MIN)

 ITER           ETOT              DE          GRAD        DDIFF     DIIS  NEXP   TIME(IT)  TIME(TOT)  DIAG
   1     -400.16352720    -400.16352720     0.00D+00     0.18D+00     0     0       0.04      0.08    start
   2     -400.21055981      -0.04703261     0.14D-01     0.15D-01     1     0       0.05      0.13    diag
   3     -400.22032891      -0.00976910     0.67D-02     0.50D-02     2     0       0.04      0.17    diag
   4     -400.22051678      -0.00018787     0.79D-03     0.70D-03     3     0       0.04      0.21    diag
   5     -400.22052547      -0.00000868     0.14D-03     0.14D-03     4     0       0.04      0.25    diag
   6     -400.22052582      -0.00000036     0.21D-04     0.27D-04     5     0       0.04      0.29    diag
   7     -400.22052584      -0.00000002     0.48D-05     0.66D-05     6     0       0.04      0.33    diag
   8     -400.22052584      -0.00000000     0.62D-06     0.95D-06     7     0       0.05      0.38    fixocc
   9     -400.22052584      -0.00000000     0.81D-07     0.99D-07     0     0       0.04      0.42    diag

 Final occupancy:   4   4   4   4   1   1   1   1

 !RHF STATE 1.1 Energy               -400.220525842492
  RHF One-electron energy            -860.805581400891
  RHF Two-electron energy             309.918704832638
  RHF Kinetic energy                  399.853735034952
  RHF Nuclear energy                  150.666350725761
  RHF Virial quotient                  -1.000917312446

 !RHF STATE 1.1 Dipole moment           0.00000000     0.00000000     0.00000000
 Dipole moment /Debye                   0.00000000     0.00000000     0.00000000

 Orbital energies:

           1.1          2.1          3.1          4.1          5.1          6.1
    -26.323619    -1.667734    -0.879462    -0.812139     0.181353     0.308701

           1.2          2.2          3.2          4.2          5.2          6.2
    -26.323643    -1.625776    -0.821805    -0.660789     0.261997     0.575761

           1.3          2.3          3.3          4.3          5.3          6.3
    -26.323643    -1.625776    -0.821805    -0.660789     0.261997     0.575761

           1.4          2.4          3.4          4.4          5.4          6.4
    -26.323665    -1.582607    -0.643498    -0.642927     0.866793     0.933719

           1.5          2.5          3.5
     -0.709446     0.720731     0.847079

           1.6          2.6          3.6
     -0.685415     0.811446     1.067920

           1.7          2.7          3.7
     -0.685415     0.811446     1.067920

           1.8          2.8          3.8
     -0.664130     1.043502     2.150125


 HOMO      4.4    -0.642927 =     -17.4949eV
 LUMO      5.1     0.181353 =       4.9349eV
 LUMO-HOMO         0.824280 =      22.4298eV

 Orbitals saved in record  2100.2


 **********************************************************************************************************************************
 DATASETS  * FILE   NREC   LENGTH (MB)   RECORD NAMES
              1      19       96.20       500      610      700      900      950      970     1000      129      960     1100   
                                          VAR    BASINP    GEOM    SYMINP    ZMAT    AOBASIS   BASIS     P2S    ABASIS      S 
                                         1400     1410     1200     1210     1080     1600     1650     1300     1700   
                                           T        V       H0       H01     AOSYM     SMH    MOLCAS    ERIS     OPER   

              2       4        0.60       700     1000      520     2100   
                                         GEOM     BASIS   MCVARS     RHF  

 PROGRAMS   *        TOTAL    HF-SCF       INT
 CPU TIMES  *         8.13      0.42      7.58
 REAL TIME  *         9.74 SEC
 DISK USED  *       317.45 MB
 **********************************************************************************************************************************


 PROGRAM * CCSD (Closed-shell coupled cluster)     Authors: C. Hampel, H.-J. Werner, 1991, M. Deegan, P.J. Knowles, 1992


 Convergence thresholds:  THRVAR = 1.00D-08  THRDEN = 1.00D-06

 Number of core orbitals:           4 (   1   1   1   1   0   0   0   0 )
 Number of closed-shell orbitals:  16 (   3   3   3   3   1   1   1   1 )
 Number of external orbitals:     156 (  30  26  26  22  15  13  13  11 )

 Molecular orbitals read from record     2100.2  Type=RHF/CANONICAL  

 Number of N-1 electron functions:              16
 Number of N-2 electron functions:             136
 Number of singly external CSFs:               364
 Number of doubly external CSFs:            401440
 Total number of CSFs:                      401805

 Length of J-op  integral file:               0.00 MB
 Length of K-op  integral file:               0.37 MB
 Length of 3-ext integral record:             0.00 MB

 Integral transformation finished. Total CPU:   0.36 sec, npass=  1  Memory used:   3.91 MW

 Reference energy:                   -400.22052584

 MP2 singlet pair energy:              -0.68608992
 MP2 triplet pair energy:              -0.44737280
 MP2 correlation energy:               -1.13346272
 MP2 total energy:                   -401.35398857

 SCS-MP2 correlation energy:           -1.10167320   (PS=  1.200000  PT=  0.333333)
 SCS-MP2 total energy:               -401.32219905

 ITER.      SQ.NORM     CORR.ENERGY   TOTAL ENERGY   ENERGY CHANGE        DEN1      VAR(S)    VAR(P)  DIIS     TIME  TIME/IT
   1      1.19882698    -1.13183324  -401.35235908     0.00162948     0.02315822  0.37D-02  0.30D-02  1  1     9.59     0.94
   2      1.20932779    -1.13120595  -401.35173179     0.00062729    -0.01771767  0.28D-04  0.32D-03  2  2    10.44     0.95
   3      1.21236059    -1.13123616  -401.35176200    -0.00003021    -0.00226065  0.32D-04  0.10D-04  3  3    11.27     0.94
   4      1.21342323    -1.13113557  -401.35166141     0.00010059    -0.00071538  0.85D-06  0.98D-06  4  4    12.13     0.94
   5      1.21364372    -1.13112261  -401.35164845     0.00001296    -0.00011525  0.13D-06  0.48D-07  5  5    12.97     0.94
   6      1.21367379    -1.13111879  -401.35164464     0.00000382    -0.00000404  0.76D-08  0.49D-08  6  6    13.82     0.94
   7      1.21368084    -1.13111851  -401.35164435     0.00000029    -0.00000196  0.78D-09  0.53D-09  6  2    14.67     0.93
   8      1.21368134    -1.13111864  -401.35164448    -0.00000013     0.00000052  0.62D-10  0.39D-10  6  1    15.55     0.94

 Norm of t1 vector:      0.07432446      S-energy:    -0.00000004      T1 diagnostic:  0.00929056
                                                                       D1 diagnostic:  0.02332693
                                                                       D2 diagnostic:  0.12130924 (internal)


 RESULTS
 =======

  Reference energy                   -400.220525842492
  CCSD singlet pair energy             -0.731192438123
  CCSD triplet pair energy             -0.399926155447
  CCSD correlation energy              -1.131118636284

 !CCSD total energy                  -401.351644478775

 Timing summary (sec):

 STEP                 CPU(USER)    SYS     CPU(TOT)    WALL
 Transformation          0.38      0.10      0.48      0.84
 CCSD iterations        15.22      0.57     15.79      7.55

 Program statistics:

 Available memory in ccsd:               805305340
 Min. memory needed in ccsd:               1023419
 Max. memory used in ccsd:                 1385287
 Max. memory used in cckext:               1212904 ( 8 integral passes)



 **********************************************************************************************************************************
 DATASETS  * FILE   NREC   LENGTH (MB)   RECORD NAMES
              1      20      132.28       500      610      700      900      950      970     1000      129      960     1100   
                                          VAR    BASINP    GEOM    SYMINP    ZMAT    AOBASIS   BASIS     P2S    ABASIS      S 
                                         1400     1410     1200     1210     1080     1600     1650     1300     1700     1380   
                                           T        V       H0       H01     AOSYM     SMH    MOLCAS    ERIS     OPER     JKOP   

              2       4        0.60       700     1000      520     2100   
                                         GEOM     BASIS   MCVARS     RHF  

 PROGRAMS   *        TOTAL      CCSD    HF-SCF       INT
 CPU TIMES  *        15.36      7.23      0.42      7.58
 REAL TIME  *        18.18 SEC
 DISK USED  *       317.45 MB
 **********************************************************************************************************************************

 Dump information in style XML to xml output                                                                      

 Orbitals will not be exported.

 **********************************************************************************************************************************

 CCSD/cc-pVTZ energy=   -401.351644478775

            CCSD          HF-SCF
   -401.35164448   -400.22052584
 **********************************************************************************************************************************
 Molpro calculation terminated
