
 Working directory              : /home/jovyan/scratch/molpro.ihwzCd3lCc/
 Global scratch directory       : /home/jovyan/scratch/molpro.ihwzCd3lCc/
 Wavefunction directory         : /home/jovyan/wfu/
 Main file repository           : /home/jovyan/scratch/molpro.ihwzCd3lCc/

 id        : cardiff

 Nodes                nprocs
 jupyter-c-2efrancisan    1
 GA implementation: MPI file
 GA implementation (serial work in mppx): MPI file

 Using customized tuning parameters: mindgm=1; mindgv=20; mindgc=4; mindgr=1; noblas=0; minvec=7
 default implementation of scratch files=df  


 Variables initialized (1031), CPU time= 0.00 sec
 
 
 
 geometry={
 12
  3NH3 (cyc) (Full point group C1)
  H -1.368356 -0.180977 -0.013169
  H 0.842949 -1.094909 0.003968
  H 0.528298 1.276672 0.008017
  H -1.941415 -1.484031 -0.832875
  H 2.256561 -0.944858 0.826735
  H -0.321706 2.423720 0.820266
  N -1.414869 -1.200455 -0.014850
  N 1.748040 -0.623591 0.011230
  N -0.333168 1.823765 0.003717
  H 2.265911 -0.938111 -0.801018
  H -0.309348 2.430495 -0.807547
  H -1.952921 -1.486037 0.794944
 }
 basis=cc-pVTZ
 angstrom
 
 
 hf; ccsd(t)
 
 
 
 {put,xml;noorbitals,nobasis}
 Commands initialized (841), CPU time= 0.01 sec, 704 directives.
 Default parameters read. Elapsed time= 0.08 sec

 Checking input...
 Passed
1


                                         ***  PROGRAM SYSTEM MOLPRO  ***
                                       Copyright, TTI GmbH Stuttgart, 2015
                                    Version 2023.1 linked Mon Jun  5 13:27:10 2023


 **********************************************************************************************************************************
 LABEL *                                                                                                                                                                 
  (16 PROC) 64 bit serial version                                                        DATE: 03-Aug-23          TIME: 14:03:59  
 **********************************************************************************************************************************

 SHA1:             9738a14712571edd23541b6d7c4f3a3d766f8287
 **********************************************************************************************************************************

 Memory per process:       805 MW
 Total memory per node:   1074 MW
 Total GA space:           268 MW

 GA preallocation disabled
 GA check enabled

 Geometry recognized as XYZ


 Variable memory set to 805.3 MW

 SETTING BASIS          =    CC-PVTZ


 Recomputing integrals since basis changed


 Using spherical harmonics

 Library entry H      S cc-pVTZ              selected for orbital group  1
 Library entry H      P cc-pVTZ              selected for orbital group  1
 Library entry H      D cc-pVTZ              selected for orbital group  1
 Library entry N      S cc-pVTZ              selected for orbital group  2
 Library entry N      P cc-pVTZ              selected for orbital group  2
 Library entry N      D cc-pVTZ              selected for orbital group  2
 Library entry N      F cc-pVTZ              selected for orbital group  2


 PROGRAM * SEWARD (Integral evaluation for generally contracted gaussian basis sets)     Author: Roland Lindh, 1990

 Geometry written to block  1 of record 700


 Point group  C1  



 ATOMIC COORDINATES

 NR  ATOM    CHARGE       X              Y              Z

   1  H       1.00   -2.585818081   -0.341996965   -0.024885803
   2  H       1.00    1.592942747   -2.069078141    0.007498433
   3  H       1.00    0.998338532    2.412560431    0.015149934
   4  H       1.00   -3.668742644   -2.804412150   -1.573905646
   5  H       1.00    4.264282274   -1.785522847    1.562302728
   6  H       1.00   -0.607936233    4.580167003    1.550078089
   7  N       7.00   -2.673714912   -2.268531175   -0.028062433
   8  N       7.00    3.303316855   -1.178416204    0.021221624
   9  N       7.00   -0.629596273    3.446416366    0.007024112
  10  H       1.00    4.281951213   -1.772772864   -1.513704641
  11  H       1.00   -0.584582997    4.592969897   -1.526042663
  12  H       1.00   -3.690485833   -2.808202941    1.502226444

 Bond lengths in Bohr (Angstrom)

 1-7  1.928540901  2-8  1.928431124  3-9  1.928495749  4-7  1.914909880  5-8  1.914931847
     ( 1.020539895)     ( 1.020481804)     ( 1.020516002)     ( 1.013326669)     ( 1.013338294)

  6- 9  1.914908677   7-12  1.914902809   8-10  1.914936993   9-11  1.914916429
       ( 1.013326033)       ( 1.013322928)       ( 1.013341017)       ( 1.013330135)

 Bond angles

  1- 7- 4  107.73216325   1- 7-12  107.72315038   2- 8- 5  107.72108479   2- 8-10  107.71067298

  3- 9- 6  107.72562755   3- 9-11  107.72905242   4- 7-12  106.87886132   5- 8-10  106.87023060

  6- 9-11  106.87960451

 NUCLEAR CHARGE:                   30
 NUMBER OF PRIMITIVE AOS:         294
 NUMBER OF SYMMETRY AOS:          270
 NUMBER OF CONTRACTIONS:          216   (  216A   )
 NUMBER OF INNER CORE ORBITALS:     0   (    0A   )
 NUMBER OF OUTER CORE ORBITALS:     3   (    3A   )
 NUMBER OF VALENCE ORBITALS:       21   (   21A   )


 NUCLEAR REPULSION ENERGY   84.04420923


 Eigenvalues of metric

         1 0.148E-02 0.148E-02 0.151E-02 0.318E-02 0.318E-02 0.340E-02 0.348E-02 0.351E-02


 Contracted 2-electron integrals neglected if value below      1.0D-11
 AO integral compression algorithm  1   Integral accuracy      1.0D-11

     715.391 MB (compressed) written to integral file ( 31.7%)


 NUMBER OF SORTED TWO-ELECTRON INTEGRALS:  274634766.     BUFFER LENGTH:  32768
 NUMBER OF SEGMENTS:  18  SEGMENT LENGTH:   15999762      RECORD LENGTH: 524288

 Memory used in sort:      16.56 MW

 SORT1 READ   281822501. AND WROTE   189466806. INTEGRALS IN    552 RECORDS. CPU TIME:     3.37 SEC, REAL TIME:     5.11 SEC
 SORT2 READ   189466806. AND WROTE   274634766. INTEGRALS IN   2729 RECORDS. CPU TIME:     4.19 SEC, REAL TIME:     5.13 SEC

 FILE SIZES:   FILE 1:   747.3 MBYTE,  FILE 4:  2315.3 MBYTE,   TOTAL:   3062.6 MBYTE

 OPERATOR DM      FOR CENTER  0  COORDINATES:    0.000000    0.000000    0.000000


 **********************************************************************************************************************************
 DATASETS  * FILE   NREC   LENGTH (MB)   RECORD NAMES
              1      19      623.43       500      610      700      900      950      970     1000      129      960     1100   
                                          VAR    BASINP    GEOM    SYMINP    ZMAT    AOBASIS   BASIS     P2S    ABASIS      S 
                                         1400     1410     1200     1210     1080     1600     1650     1300     1700   
                                           T        V       H0       H01     AOSYM     SMH    MOLCAS    ERIS     OPER   

 PROGRAMS   *        TOTAL       INT
 CPU TIMES  *        21.40     21.27
 REAL TIME  *        26.34 SEC
 DISK USED  *         2.85 GB
 **********************************************************************************************************************************


 Program * Restricted Hartree-Fock

 Orbital guess generated from atomic densities. Full valence occupancy:   24

 Initial occupancy:  15

 NELEC=   30   SYM=1   MS2= 0   THRE=1.0D-08   THRD=3.2D-06   THRG=3.2D-06  HFMA2=F  DIIS_START=2   DIIS_MAX=10   DIIS_INCORE=F

 Level shifts:    0.00 (CLOSED)    0.00 (OPEN)    0.30 (GAP_MIN)

 ITER           ETOT              DE          GRAD        DDIFF     DIIS  NEXP   TIME(IT)  TIME(TOT)  DIAG
   1     -168.59551083    -168.59551083     0.00D+00     0.49D-01     0     0       3.13      6.20    start
   2     -168.65226125      -0.05675042     0.48D-02     0.66D-02     1     0       3.17      9.37    diag
   3     -168.66419055      -0.01192931     0.23D-02     0.20D-02     2     0       3.18     12.55    diag
   4     -168.66484807      -0.00065752     0.38D-03     0.48D-03     3     0       3.16     15.71    diag
   5     -168.66487933      -0.00003126     0.76D-04     0.97D-04     4     0       3.18     18.89    diag
   6     -168.66488100      -0.00000167     0.15D-04     0.27D-04     5     0       3.17     22.06    diag
   7     -168.66488108      -0.00000008     0.31D-05     0.58D-05     6     0       3.18     25.24    diag
   8     -168.66488109      -0.00000001     0.89D-06     0.19D-05     7     0       3.15     28.39    fixocc
   9     -168.66488109      -0.00000000     0.20D-06     0.31D-06     0     0       3.16     31.55    diag

 Final occupancy:  15

 !RHF STATE 1.1 Energy               -168.664881088985
  RHF One-electron energy            -395.728629606696
  RHF Two-electron energy             143.019539288048
  RHF Kinetic energy                  168.438450061425
  RHF Nuclear energy                   84.044209229663
  RHF Virial quotient                  -1.001344295364

 !RHF STATE 1.1 Dipole moment           0.00082503     0.00242636    -0.00046020
 Dipole moment /Debye                   0.00209702     0.00616719    -0.00116970

 Orbital energies:

           1.1          2.1          3.1          4.1          5.1          6.1          7.1          8.1          9.1         10.1
    -15.520194   -15.520162   -15.520004    -1.129715    -1.119484    -1.119362    -0.631345    -0.614769    -0.611283    -0.611186

          11.1         12.1         13.1         14.1         15.1         16.1         17.1
     -0.602463    -0.602395    -0.419163    -0.419082    -0.404151     0.134665     0.170814


 HOMO     15.1    -0.404151 =     -10.9975eV
 LUMO     16.1     0.134665 =       3.6644eV
 LUMO-HOMO         0.538816 =      14.6619eV

 Orbitals saved in record  2100.2


 **********************************************************************************************************************************
 DATASETS  * FILE   NREC   LENGTH (MB)   RECORD NAMES
              1      19      623.43       500      610      700      900      950      970     1000      129      960     1100   
                                          VAR    BASINP    GEOM    SYMINP    ZMAT    AOBASIS   BASIS     P2S    ABASIS      S 
                                         1400     1410     1200     1210     1080     1600     1650     1300     1700   
                                           T        V       H0       H01     AOSYM     SMH    MOLCAS    ERIS     OPER   

              2       4        1.30       700     1000      520     2100   
                                         GEOM     BASIS   MCVARS     RHF  

 PROGRAMS   *        TOTAL    HF-SCF       INT
 CPU TIMES  *        52.95     31.55     21.27
 REAL TIME  *        60.71 SEC
 DISK USED  *         2.85 GB
 **********************************************************************************************************************************


 PROGRAM * CCSD (Closed-shell coupled cluster)     Authors: C. Hampel, H.-J. Werner, 1991, M. Deegan, P.J. Knowles, 1992


 Convergence thresholds:  THRVAR = 1.00D-08  THRDEN = 1.00D-06

 CCSD(T)     terms to be evaluated (factor= 1.000)


 Number of core orbitals:           3 (   3 )
 Number of closed-shell orbitals:  12 (  12 )
 Number of external orbitals:     201 ( 201 )

 Molecular orbitals read from record     2100.2  Type=RHF/CANONICAL  

 Number of N-1 electron functions:              12
 Number of N-2 electron functions:              78
 Number of singly external CSFs:              2412
 Number of doubly external CSFs:           2910078
 Total number of CSFs:                     2912491

 Length of J-op  integral file:               0.00 MB
 Length of K-op  integral file:               3.27 MB
 Length of 3-ext integral record:             0.00 MB

 Memory could be reduced to 125.41 Mwords without degradation in triples

 Integral transformation finished. Total CPU:  14.35 sec, npass=  1  Memory used:  72.87 MW

 Reference energy:                   -168.66488109

 MP2 singlet pair energy:              -0.47364121
 MP2 triplet pair energy:              -0.24076594
 MP2 correlation energy:               -0.71440715
 MP2 total energy:                   -169.37928824

 SCS-MP2 correlation energy:           -0.71817937   (PS=  1.200000  PT=  0.333333)
 SCS-MP2 total energy:               -169.38306046

 ITER.      SQ.NORM     CORR.ENERGY   TOTAL ENERGY   ENERGY CHANGE        DEN1      VAR(S)    VAR(P)  DIIS     TIME  TIME/IT
   1      1.20988481    -0.74750349  -169.41238458    -0.03309635    -0.01776788  0.14D-02  0.27D-02  1  1    90.31    23.43
   2      1.22193310    -0.74966328  -169.41454437    -0.00215979    -0.01447994  0.41D-04  0.28D-03  2  2   113.29    23.98
   3      1.22575642    -0.74986882  -169.41474991    -0.00020554    -0.00266801  0.72D-05  0.16D-04  3  3   136.38    24.22
   4      1.22678924    -0.74991002  -169.41479111    -0.00004120    -0.00052191  0.71D-06  0.95D-06  4  4   159.55    24.14
   5      1.22694155    -0.74990809  -169.41478918     0.00000193    -0.00004865  0.17D-06  0.80D-07  5  5   182.65    24.09
   6      1.22698083    -0.74990570  -169.41478679     0.00000239    -0.00001126  0.23D-07  0.76D-08  6  6   205.70    24.04
   7      1.22698819    -0.74990565  -169.41478674     0.00000005    -0.00000051  0.33D-08  0.11D-08  6  2   229.18    24.08
   8      1.22699202    -0.74990552  -169.41478660     0.00000014    -0.00000039  0.45D-09  0.15D-09  6  1   252.34    24.09

 Norm of t1 vector:      0.04813695      S-energy:    -0.00000033      T1 diagnostic:  0.00694797
                                                                       D1 diagnostic:  0.01414053
                                                                       D2 diagnostic:  0.13404785 (internal)


 Total CPU time for triples:    439.99 sec


 RESULTS
 =======

  Reference energy                   -168.664881088985
  CCSD singlet pair energy             -0.529871839677
  CCSD triplet pair energy             -0.220033348702
  CCSD correlation energy              -0.749905515956

  Triples (T) contribution             -0.024329077881
  Total correlation energy             -0.774234593837

  CCSD total energy                  -169.414786604941
  CCSD[T] energy                     -169.439674213826
  CCSD-T energy                      -169.438819354701
 !CCSD(T) total energy               -169.439115682822

 Timing summary (sec):

 STEP                 CPU(USER)    SYS     CPU(TOT)    WALL
 Transformation         14.60      1.19     15.79     16.58
 CCSD iterations       238.02      5.16    243.18    193.04
 Triples               439.99      8.86    448.85    452.91

 Program statistics:

 Available memory in ccsd:               805305777
 Min. memory needed in ccsd:               7605796
 Max. memory used in ccsd:                10199614
 Max. memory used in cckext:               7706818 ( 8 integral passes)



 **********************************************************************************************************************************
 DATASETS  * FILE   NREC   LENGTH (MB)   RECORD NAMES
              1      20     1039.44       500      610      700      900      950      970     1000      129      960     1100   
                                          VAR    BASINP    GEOM    SYMINP    ZMAT    AOBASIS   BASIS     P2S    ABASIS      S 
                                         1400     1410     1200     1210     1080     1600     1650     1300     1700     1380   
                                           T        V       H0       H01     AOSYM     SMH    MOLCAS    ERIS     OPER     JKOP   

              2       4        1.30       700     1000      520     2100   
                                         GEOM     BASIS   MCVARS     RHF  

 PROGRAMS   *        TOTAL   CCSD(T)    HF-SCF       INT
 CPU TIMES  *       692.35    639.40     31.55     21.27
 REAL TIME  *       723.37 SEC
 DISK USED  *         2.85 GB
 **********************************************************************************************************************************

 Dump information in style XML to xml output                                                                      

 Orbitals will not be exported.

 **********************************************************************************************************************************

 CCSD(T)/cc-pVTZ energy=   -169.439115682822

         CCSD(T)          HF-SCF
   -169.43911568   -168.66488109
 **********************************************************************************************************************************
 Molpro calculation terminated
