
 Working directory              : /home/jovyan/scratch/molpro.bwYVLiNWRT/
 Global scratch directory       : /home/jovyan/scratch/molpro.bwYVLiNWRT/
 Wavefunction directory         : /home/jovyan/wfu/
 Main file repository           : /home/jovyan/scratch/molpro.bwYVLiNWRT/

 id        : cardiff

 Nodes                nprocs
 jupyter-c-2efrancisan    1
 GA implementation: MPI file
 GA implementation (serial work in mppx): MPI file

 Using customized tuning parameters: mindgm=1; mindgv=20; mindgc=4; mindgr=1; noblas=0; minvec=7
 default implementation of scratch files=df  


 Variables initialized (1031), CPU time= 0.01 sec
 
 
 
 geometry={
 6
  C    -0.0000000    0.0000000   -0.4861410
  C     0.0000000    0.0000000    0.9653746
  N     0.0000000    0.0000000    2.1145426
  H    -0.5102145    0.8837175   -0.8645921
  H    -0.5102145   -0.8837175   -0.8645921
  H     1.0204291    0.0000000   -0.8645921
 }
 basis=cc-pVTZ
 angstrom
 
 
 hf; ccsd(t)
 
 
 
 {put,xml;noorbitals,nobasis}
 Commands initialized (841), CPU time= 0.01 sec, 704 directives.
 Default parameters read. Elapsed time= 0.08 sec

 Checking input...
 Passed
1


                                         ***  PROGRAM SYSTEM MOLPRO  ***
                                       Copyright, TTI GmbH Stuttgart, 2015
                                    Version 2023.1 linked Mon Jun  5 13:27:10 2023


 **********************************************************************************************************************************
 LABEL *                                                                                                                                                                 
  (16 PROC) 64 bit serial version                                                        DATE: 02-Aug-23          TIME: 15:54:16  
 **********************************************************************************************************************************

 SHA1:             9738a14712571edd23541b6d7c4f3a3d766f8287
 **********************************************************************************************************************************

 Memory per process:       805 MW
 Total memory per node:   1074 MW
 Total GA space:           268 MW

 GA preallocation disabled
 GA check enabled

 Geometry recognized as XYZ


 Variable memory set to 805.3 MW

 SETTING BASIS          =    CC-PVTZ


 Recomputing integrals since basis changed


 Using spherical harmonics

 Library entry C      S cc-pVTZ              selected for orbital group  1
 Library entry C      P cc-pVTZ              selected for orbital group  1
 Library entry C      D cc-pVTZ              selected for orbital group  1
 Library entry C      F cc-pVTZ              selected for orbital group  1
 Library entry N      S cc-pVTZ              selected for orbital group  2
 Library entry N      P cc-pVTZ              selected for orbital group  2
 Library entry N      D cc-pVTZ              selected for orbital group  2
 Library entry N      F cc-pVTZ              selected for orbital group  2
 Library entry H      S cc-pVTZ              selected for orbital group  3
 Library entry H      P cc-pVTZ              selected for orbital group  3
 Library entry H      D cc-pVTZ              selected for orbital group  3


 PROGRAM * SEWARD (Integral evaluation for generally contracted gaussian basis sets)     Author: Roland Lindh, 1990

 Geometry written to block  1 of record 700


 Point group  Cs  



 ATOMIC COORDINATES

 NR  ATOM    CHARGE       X              Y              Z

   1  C       6.00   -0.000000000    0.000000000   -0.918673348
   2  C       6.00    0.000000000    0.000000000    1.824293602
   3  N       7.00    0.000000000    0.000000000    3.995906393
   4  H       1.00   -0.964165670    1.669984047   -1.633842279
   5  H       1.00   -0.964165670   -1.669984047   -1.633842279
   6  H       1.00    1.928331529    0.000000000   -1.633842279

 Bond lengths in Bohr (Angstrom)

 1-2  2.742966950  1-4  2.056679059  1-5  2.056679059  1-6  2.056679140  2-3  2.171612791
     ( 1.451515600)     ( 1.088347688)     ( 1.088347688)     ( 1.088347731)     ( 1.149168000)

 Bond angles

  1-2-3  180.00000000   2-1-4  110.34853214   2-1-5  110.34853214   2-1-6  110.34853131

  4-1-5  108.57984293   4-1-6  108.57983908   5-1-6  108.57983908

 NUCLEAR CHARGE:                   22
 NUMBER OF PRIMITIVE AOS:         192
 NUMBER OF SYMMETRY AOS:          174
 NUMBER OF CONTRACTIONS:          132   (   84A'  +   48A"  )
 NUMBER OF INNER CORE ORBITALS:     0   (    0A'  +    0A"  )
 NUMBER OF OUTER CORE ORBITALS:     3   (    3A'  +    0A"  )
 NUMBER OF VALENCE ORBITALS:       15   (   11A'  +    4A"  )


 NUCLEAR REPULSION ENERGY   58.73613369


 Eigenvalues of metric

         1 0.776E-03 0.112E-02 0.139E-02 0.169E-02 0.210E-02 0.243E-02 0.519E-02 0.998E-02
         2 0.169E-02 0.998E-02 0.149E-01 0.170E-01 0.190E-01 0.330E-01 0.454E-01 0.501E-01


 Contracted 2-electron integrals neglected if value below      1.0D-11
 AO integral compression algorithm  1   Integral accuracy      1.0D-11

     78.905 MB (compressed) written to integral file ( 42.6%)


 NUMBER OF SORTED TWO-ELECTRON INTEGRALS:   19661271.     BUFFER LENGTH:  32768
 NUMBER OF SEGMENTS:   2  SEGMENT LENGTH:   15998451      RECORD LENGTH: 524288

 Memory used in sort:      16.56 MW

 SORT1 READ    23103661. AND WROTE    16364635. INTEGRALS IN     48 RECORDS. CPU TIME:     0.33 SEC, REAL TIME:     0.76 SEC
 SORT2 READ    16364635. AND WROTE    19661271. INTEGRALS IN    301 RECORDS. CPU TIME:     0.47 SEC, REAL TIME:     0.63 SEC

 FILE SIZES:   FILE 1:   109.5 MBYTE,  FILE 4:   201.4 MBYTE,   TOTAL:    310.9 MBYTE

 OPERATOR DM      FOR CENTER  0  COORDINATES:    0.000000    0.000000    0.000000


 **********************************************************************************************************************************
 DATASETS  * FILE   NREC   LENGTH (MB)   RECORD NAMES
              1      19       94.97       500      610      700      900      950      970     1000      129      960     1100   
                                          VAR    BASINP    GEOM    SYMINP    ZMAT    AOBASIS   BASIS     P2S    ABASIS      S 
                                         1400     1410     1200     1210     1080     1600     1650     1300     1700   
                                           T        V       H0       H01     AOSYM     SMH    MOLCAS    ERIS     OPER   

 PROGRAMS   *        TOTAL       INT
 CPU TIMES  *         3.63      3.50
 REAL TIME  *         6.06 SEC
 DISK USED  *       296.88 MB
 **********************************************************************************************************************************


 Program * Restricted Hartree-Fock

 Orbital guess generated from atomic densities. Full valence occupancy:   14   4

 Initial occupancy:   9   2

 NELEC=   22   SYM=1   MS2= 0   THRE=1.0D-08   THRD=3.2D-06   THRG=3.2D-06  HFMA2=F  DIIS_START=2   DIIS_MAX=10   DIIS_INCORE=F

 Level shifts:    0.00 (CLOSED)    0.00 (OPEN)    0.30 (GAP_MIN)

 ITER           ETOT              DE          GRAD        DDIFF     DIIS  NEXP   TIME(IT)  TIME(TOT)  DIAG
   1     -131.92584172    -131.92584172     0.00D+00     0.90D-01     0     0       0.15      0.30    start
   2     -131.95247933      -0.02663761     0.70D-02     0.11D-01     1     0       0.15      0.45    diag
   3     -131.97256462      -0.02008529     0.57D-02     0.51D-02     2     0       0.16      0.61    diag
   4     -131.97377198      -0.00120737     0.91D-03     0.13D-02     3     0       0.15      0.76    diag
   5     -131.97384565      -0.00007367     0.21D-03     0.36D-03     4     0       0.16      0.92    diag
   6     -131.97385074      -0.00000509     0.61D-04     0.12D-03     5     0       0.15      1.07    diag
   7     -131.97385102      -0.00000028     0.17D-04     0.24D-04     6     0       0.16      1.23    diag
   8     -131.97385104      -0.00000002     0.42D-05     0.63D-05     7     0       0.16      1.39    fixocc
   9     -131.97385104      -0.00000000     0.10D-05     0.17D-05     8     0       0.15      1.54    diag
  10     -131.97385104      -0.00000000     0.16D-06     0.35D-06     0     0       0.16      1.70    diag/orth

 Final occupancy:   9   2

 !RHF STATE 1.1 Energy               -131.973851043794
  RHF One-electron energy            -293.758792685264
  RHF Two-electron energy             103.048807953566
  RHF Kinetic energy                  131.790423869255
  RHF Nuclear energy                   58.736133687904
  RHF Virial quotient                  -1.001391809580

 !RHF STATE 1.1 Dipole moment           0.00000001     0.00000000    -1.64298518
 Dipole moment /Debye                   0.00000002     0.00000000    -4.17605178

 Orbital energies:

           1.1          2.1          3.1          4.1          5.1          6.1          7.1          8.1          9.1         10.1
    -15.567110   -11.283675   -11.274554    -1.222009    -1.042391    -0.700202    -0.630214    -0.555355    -0.462430     0.121858

          11.1
      0.173932

           1.2          2.2          3.2          4.2
     -0.630214    -0.462430     0.173932     0.229063


 HOMO      9.1    -0.462430 =     -12.5834eV
 LUMO     10.1     0.121858 =       3.3159eV
 LUMO-HOMO         0.584288 =      15.8993eV

 Orbitals saved in record  2100.2


 **********************************************************************************************************************************
 DATASETS  * FILE   NREC   LENGTH (MB)   RECORD NAMES
              1      19       94.97       500      610      700      900      950      970     1000      129      960     1100   
                                          VAR    BASINP    GEOM    SYMINP    ZMAT    AOBASIS   BASIS     P2S    ABASIS      S 
                                         1400     1410     1200     1210     1080     1600     1650     1300     1700   
                                           T        V       H0       H01     AOSYM     SMH    MOLCAS    ERIS     OPER   

              2       4        0.62       700     1000      520     2100   
                                         GEOM     BASIS   MCVARS     RHF  

 PROGRAMS   *        TOTAL    HF-SCF       INT
 CPU TIMES  *         5.33      1.70      3.50
 REAL TIME  *         8.18 SEC
 DISK USED  *       296.88 MB
 **********************************************************************************************************************************


 PROGRAM * CCSD (Closed-shell coupled cluster)     Authors: C. Hampel, H.-J. Werner, 1991, M. Deegan, P.J. Knowles, 1992


 Convergence thresholds:  THRVAR = 1.00D-08  THRDEN = 1.00D-06

 CCSD(T)     terms to be evaluated (factor= 1.000)


 Number of core orbitals:           3 (   3   0 )
 Number of closed-shell orbitals:   8 (   6   2 )
 Number of external orbitals:     121 (  75  46 )

 Molecular orbitals read from record     2100.2  Type=RHF/CANONICAL  

 Number of N-1 electron functions:               8
 Number of N-2 electron functions:              36
 Number of singly external CSFs:               542
 Number of doubly external CSFs:            238104
 Total number of CSFs:                      238647

 Length of J-op  integral file:               0.00 MB
 Length of K-op  integral file:               0.71 MB
 Length of 3-ext integral record:             0.00 MB

 Memory could be reduced to 10.06 Mwords without degradation in triples

 Integral transformation finished. Total CPU:   0.64 sec, npass=  1  Memory used:   3.49 MW

 Reference energy:                   -131.97385104

 MP2 singlet pair energy:              -0.32980321
 MP2 triplet pair energy:              -0.18444309
 MP2 correlation energy:               -0.51424630
 MP2 total energy:                   -132.48809735

 SCS-MP2 correlation energy:           -0.51052844   (PS=  1.200000  PT=  0.333333)
 SCS-MP2 total energy:               -132.48437949

 ITER.      SQ.NORM     CORR.ENERGY   TOTAL ENERGY   ENERGY CHANGE        DEN1      VAR(S)    VAR(P)  DIIS     TIME  TIME/IT
   1      1.16893110    -0.52760574  -132.50145679    -0.01335944     0.00345561  0.30D-02  0.38D-02  1  1     6.94     4.31
   2      1.18168012    -0.52845743  -132.50230847    -0.00085168    -0.01378025  0.51D-04  0.50D-03  2  2     7.61     2.78
   3      1.18745522    -0.52865590  -132.50250694    -0.00019847    -0.00316899  0.19D-04  0.40D-04  3  3     8.30     2.11
   4      1.18953761    -0.52872551  -132.50257655    -0.00006961    -0.00081177  0.72D-06  0.48D-05  4  4     9.02     1.90
   5      1.19001804    -0.52872710  -132.50257815    -0.00000159    -0.00013894  0.12D-06  0.54D-06  5  5     9.73     1.87
   6      1.19013806    -0.52872127  -132.50257231     0.00000583    -0.00003152  0.92D-08  0.36D-07  6  6    10.41     1.79
   7      1.19014649    -0.52872341  -132.50257445    -0.00000214    -0.00000150  0.81D-09  0.27D-08  6  2    11.11     1.64
   8      1.19014775    -0.52872349  -132.50257453    -0.00000008    -0.00000011  0.89D-10  0.22D-09  6  1    11.77     1.53
   9      1.19014767    -0.52872357  -132.50257461    -0.00000008     0.00000010  0.15D-10  0.22D-10  6  4    12.46     1.44

 Norm of t1 vector:      0.06976576      S-energy:     0.00000013      T1 diagnostic:  0.01233296
                                                                       D1 diagnostic:  0.02861515
                                                                       D2 diagnostic:  0.17383970 (internal)


 Total CPU time for triples:      8.50 sec


 RESULTS
 =======

  Reference energy                   -131.973851043794
  CCSD singlet pair energy             -0.367682178690
  CCSD triplet pair energy             -0.161041522939
  CCSD correlation energy              -0.528723569545

  Triples (T) contribution             -0.024803599100
  Total correlation energy             -0.553527168645

  CCSD total energy                  -132.502574613340
  CCSD[T] energy                     -132.528342971576
  CCSD-T energy                      -132.526928173686
 !CCSD(T) total energy               -132.527378212439

 Timing summary (sec):

 STEP                 CPU(USER)    SYS     CPU(TOT)    WALL
 Transformation          0.66      0.09      0.75      5.20
 CCSD iterations        11.82      0.43     12.25     13.00
 Triples                 8.50      0.30      8.80      9.26

 Program statistics:

 Available memory in ccsd:               805306103
 Min. memory needed in ccsd:                736814
 Max. memory used in ccsd:                  933652
 Max. memory used in cckext:               1072730 ( 9 integral passes)



 **********************************************************************************************************************************
 DATASETS  * FILE   NREC   LENGTH (MB)   RECORD NAMES
              1      20      126.28       500      610      700      900      950      970     1000      129      960     1100   
                                          VAR    BASINP    GEOM    SYMINP    ZMAT    AOBASIS   BASIS     P2S    ABASIS      S 
                                         1400     1410     1200     1210     1080     1600     1650     1300     1700     1380   
                                           T        V       H0       H01     AOSYM     SMH    MOLCAS    ERIS     OPER     JKOP   

              2       4        0.62       700     1000      520     2100   
                                         GEOM     BASIS   MCVARS     RHF  

 PROGRAMS   *        TOTAL   CCSD(T)    HF-SCF       INT
 CPU TIMES  *        20.71     15.37      1.70      3.50
 REAL TIME  *        35.72 SEC
 DISK USED  *       296.88 MB
 **********************************************************************************************************************************

 Dump information in style XML to xml output                                                                      

 Orbitals will not be exported.

 **********************************************************************************************************************************

 CCSD(T)/cc-pVTZ energy=   -132.527378212439

         CCSD(T)          HF-SCF
   -132.52737821   -131.97385104
 **********************************************************************************************************************************
 Molpro calculation terminated
