
 Working directory              : /home/jovyan/scratch/molpro.A5vOwidQgQ/
 Global scratch directory       : /home/jovyan/scratch/molpro.A5vOwidQgQ/
 Wavefunction directory         : /home/jovyan/wfu/
 Main file repository           : /home/jovyan/scratch/molpro.A5vOwidQgQ/

 id        : cardiff

 Nodes                nprocs
 jupyter-c-2efrancisan    1
 GA implementation: MPI file
 GA implementation (serial work in mppx): MPI file

 Using customized tuning parameters: mindgm=1; mindgv=20; mindgc=4; mindgr=1; noblas=0; minvec=7
 default implementation of scratch files=df  


 Variables initialized (1031), CPU time= 0.01 sec
 
 
 
 geometry={
 3
    S   -0.20556127464025      0.00000000000000     -0.14507162979824
    H   -0.01007104299822      0.00000000000000      1.18200447183515
    H   1.11130231763847      0.00000000000000     -0.40359584203690
 }
 basis=cc-pVTZ
 angstrom
 
 
 hf; papt;mp3
 
 
 
 {put,xml;noorbitals,nobasis}
 Commands initialized (841), CPU time= 0.01 sec, 704 directives.
 Default parameters read. Elapsed time= 0.97 sec

 Checking input...
 Passed
1


                                         ***  PROGRAM SYSTEM MOLPRO  ***
                                       Copyright, TTI GmbH Stuttgart, 2015
                                    Version 2023.1 linked Mon Jun  5 13:27:10 2023


 **********************************************************************************************************************************
 LABEL *                                                                                                                                                                 
  (16 PROC) 64 bit serial version                                                        DATE: 02-Aug-23          TIME: 15:35:31  
 **********************************************************************************************************************************

 SHA1:             9738a14712571edd23541b6d7c4f3a3d766f8287
 **********************************************************************************************************************************

 Memory per process:       805 MW
 Total memory per node:   1074 MW
 Total GA space:           268 MW

 GA preallocation disabled
 GA check enabled

 Geometry recognized as XYZ


 Variable memory set to 805.3 MW

 SETTING BASIS          =    CC-PVTZ


 Recomputing integrals since basis changed


 Using spherical harmonics

 Library entry S      S cc-pVTZ              selected for orbital group  1
 Library entry S      P cc-pVTZ              selected for orbital group  1
 Library entry S      D cc-pVTZ              selected for orbital group  1
 Library entry S      F cc-pVTZ              selected for orbital group  1
 Library entry H      S cc-pVTZ              selected for orbital group  2
 Library entry H      P cc-pVTZ              selected for orbital group  2
 Library entry H      D cc-pVTZ              selected for orbital group  2


 PROGRAM * SEWARD (Integral evaluation for generally contracted gaussian basis sets)     Author: Roland Lindh, 1990

 Geometry written to block  1 of record 700


 Point group  Cs  



 ATOMIC COORDINATES

 NR  ATOM    CHARGE       X              Y              Z

   1  S      16.00   -0.388454511    0.000000000   -0.274145649
   2  H       1.00   -0.019031513    0.000000000    2.233664730
   3  H       1.00    2.100057022    0.000000000   -0.762685606

 Bond lengths in Bohr (Angstrom)

 1-2  2.534874010  1-3  2.536012804
     ( 1.341397559)     ( 1.342000182)

 Bond angles

  2-1-3   92.72703294

 NUCLEAR CHARGE:                   18
 NUMBER OF PRIMITIVE AOS:          98
 NUMBER OF SYMMETRY AOS:           91
 NUMBER OF CONTRACTIONS:           62   (   43A'  +   19A"  )
 NUMBER OF INNER CORE ORBITALS:     1   (    1A'  +    0A"  )
 NUMBER OF OUTER CORE ORBITALS:     4   (    3A'  +    1A"  )
 NUMBER OF VALENCE ORBITALS:        6   (    5A'  +    1A"  )


 NUCLEAR REPULSION ENERGY   12.89354928

 Eigenvalues of metric

         1 0.185E-02 0.210E-02 0.502E-02 0.137E-01 0.153E-01 0.326E-01 0.346E-01 0.834E-01
         2 0.267E-01 0.137E+00 0.147E+00 0.422E+00 0.426E+00 0.462E+00 0.468E+00 0.543E+00


 Contracted 2-electron integrals neglected if value below      1.0D-11
 AO integral compression algorithm  1   Integral accuracy      1.0D-11

     5.505 MB (compressed) written to integral file ( 56.3%)


 NUMBER OF SORTED TWO-ELECTRON INTEGRALS:    1005296.     BUFFER LENGTH:  32768
 NUMBER OF SEGMENTS:   1  SEGMENT LENGTH:    1005296      RECORD LENGTH: 524288

 Memory used in sort:       1.56 MW

 SORT1 READ     1227267. AND WROTE      926051. INTEGRALS IN      3 RECORDS. CPU TIME:     0.02 SEC, REAL TIME:     0.18 SEC
 SORT2 READ      926051. AND WROTE     1005296. INTEGRALS IN     21 RECORDS. CPU TIME:     0.05 SEC, REAL TIME:     0.08 SEC

 FILE SIZES:   FILE 1:    35.6 MBYTE,  FILE 4:    12.6 MBYTE,   TOTAL:     48.3 MBYTE

 OPERATOR DM      FOR CENTER  0  COORDINATES:    0.000000    0.000000    0.000000


 **********************************************************************************************************************************
 DATASETS  * FILE   NREC   LENGTH (MB)   RECORD NAMES
              1      19       32.81       500      610      700      900      950      970     1000      129      960     1100   
                                          VAR    BASINP    GEOM    SYMINP    ZMAT    AOBASIS   BASIS     P2S    ABASIS      S 
                                         1400     1410     1200     1210     1080     1600     1650     1300     1700   
                                           T        V       H0       H01     AOSYM     SMH    MOLCAS    ERIS     OPER   

 PROGRAMS   *        TOTAL       INT
 CPU TIMES  *         0.75      0.61
 REAL TIME  *         3.56 SEC
 DISK USED  *        46.41 MB
 **********************************************************************************************************************************


 Program * Restricted Hartree-Fock

 Orbital guess generated from atomic densities. Full valence occupancy:    9   2

 Initial occupancy:   7   2

 NELEC=   18   SYM=1   MS2= 0   THRE=1.0D-08   THRD=3.2D-06   THRG=3.2D-06  HFMA2=F  DIIS_START=2   DIIS_MAX=10   DIIS_INCORE=F

 Level shifts:    0.00 (CLOSED)    0.00 (OPEN)    0.30 (GAP_MIN)

 ITER           ETOT              DE          GRAD        DDIFF     DIIS  NEXP   TIME(IT)  TIME(TOT)  DIAG
   1     -398.69291747    -398.69291747     0.00D+00     0.17D+00     0     0       0.01      0.01    start
   2     -398.71063904      -0.01772157     0.60D-02     0.13D-01     1     0       0.01      0.02    diag
   3     -398.71252206      -0.00188302     0.21D-02     0.23D-02     2     0       0.01      0.03    diag
   4     -398.71288920      -0.00036714     0.64D-03     0.10D-02     3     0       0.01      0.04    diag
   5     -398.71290964      -0.00002044     0.15D-03     0.27D-03     4     0       0.01      0.05    diag
   6     -398.71291013      -0.00000049     0.26D-04     0.51D-04     5     0       0.01      0.06    diag
   7     -398.71291016      -0.00000003     0.62D-05     0.21D-04     6     0       0.01      0.07    diag
   8     -398.71291016      -0.00000000     0.96D-06     0.29D-05     7     0       0.01      0.08    fixocc
   9     -398.71291016      -0.00000000     0.19D-06     0.40D-06     0     0       0.00      0.08    diag

 Final occupancy:   7   2

 !RHF STATE 1.1 Energy               -398.712910164359
  RHF One-electron energy            -576.575310885679
  RHF Two-electron energy             164.968851446011
  RHF Kinetic energy                  398.693712792057
  RHF Nuclear energy                   12.893549275309
  RHF Virial quotient                  -1.000048150677

 !RHF STATE 1.1 Dipole moment           0.37140833     0.00000000     0.26259484
 Dipole moment /Debye                   0.94402580     0.00000000     0.66744952

 Orbital energies:

           1.1          2.1          3.1          4.1          5.1          6.1          7.1          8.1          9.1
    -91.963176    -8.966224    -6.647474    -6.646687    -0.979158    -0.587939    -0.498739     0.128767     0.152645

           1.2          2.2          3.2          4.2
     -6.645421    -0.383992     0.439630     0.502943


 HOMO      2.2    -0.383992 =     -10.4490eV
 LUMO      8.1     0.128767 =       3.5039eV
 LUMO-HOMO         0.512759 =      13.9529eV

 Orbitals saved in record  2100.2


 **********************************************************************************************************************************
 DATASETS  * FILE   NREC   LENGTH (MB)   RECORD NAMES
              1      19       32.81       500      610      700      900      950      970     1000      129      960     1100   
                                          VAR    BASINP    GEOM    SYMINP    ZMAT    AOBASIS   BASIS     P2S    ABASIS      S 
                                         1400     1410     1200     1210     1080     1600     1650     1300     1700   
                                           T        V       H0       H01     AOSYM     SMH    MOLCAS    ERIS     OPER   

              2       4        0.45       700     1000      520     2100   
                                         GEOM     BASIS   MCVARS     RHF  

 PROGRAMS   *        TOTAL    HF-SCF       INT
 CPU TIMES  *         0.85      0.10      0.61
 REAL TIME  *         3.77 SEC
 DISK USED  *        46.41 MB
 **********************************************************************************************************************************


 PROGRAM * PAPT (Closed-shell)     Authors: C. Hampel, H.-J. Werner, 1991, P.J. Knowles, 2021


 Convergence thresholds:  THRVAR = 1.00D-08  THRDEN = 1.00D-06

 Number of core orbitals:           5 (   4   1 )
 Number of closed-shell orbitals:   4 (   3   1 )
 Number of external orbitals:      53 (  36  17 )

 Molecular orbitals read from record     2100.2  Type=RHF/CANONICAL  

 Number of N-1 electron functions:               4
 Number of N-2 electron functions:              10
 Number of singly external CSFs:               125
 Number of doubly external CSFs:             11703
 Total number of CSFs:                       11829

 Length of J-op  integral file:               0.00 MB
 Length of K-op  integral file:               0.21 MB

 Integral transformation finished. Total CPU:   0.02 sec, npass=  1  Memory used:   0.11 MW

 Reference energy:                   -398.71291016

                        CORR.ENERGY   TOTAL ENERGY   ENERGY CHANGE
 MP2:                   -0.19068743  -398.90359759    -0.19068743

 SCS-MP2 correlation energy:           -0.19479059   (PS=  1.200000  PT=  0.333333)
 SCS-MP2 total energy:               -398.90770076
 Iteration:   1     0.1756D+00
 Iteration:   2     0.2270D+00
 Iteration:   3     0.4148D-01
 Iteration:   4     0.3066D-01
 Iteration:   5     0.1829D-01
 Iteration:   6     0.5191D-02
 Iteration:   7     0.2316D-01
 Iteration:   8     0.1087D-02
 Iteration:   9     0.6639D-03
 Iteration:  10     0.1553D-02
 Iteration:  11     0.7443D-04
 PAPT operator written to  7000.1
 PAPT orbitals and eigenvalues written to  7000.2

 MP3(D):                -0.21369930  -398.92660946    -0.02301187



 RESULTS
 =======

  Reference energy                   -398.712910164359
  MP3 singlet pair energy              -0.152898710616
  MP3 triplet pair energy              -0.060800589590
  MP3 correlation energy               -0.213699300207

 !MP3 total energy                   -398.926609464566

 Timing summary (sec):

 STEP                 CPU(USER)    SYS     CPU(TOT)    WALL
 Transformation          0.02      0.01      0.03      0.22
 CCSD iterations         1.24      0.01      1.25      0.79

 Program statistics:

 Available memory in ccsd:               805306297
 Min. memory needed in ccsd:                 63163
 Max. memory used in ccsd:                   69791
 Max. memory used in cckext:                122546 ( 1 integral passes)



 **********************************************************************************************************************************
 DATASETS  * FILE   NREC   LENGTH (MB)   RECORD NAMES
              1      21       33.09       500      610      700      900      950      970     1000      129      960     1100   
                                          VAR    BASINP    GEOM    SYMINP    ZMAT    AOBASIS   BASIS     P2S    ABASIS      S 
                                         1400     1410     1200     1210     1080     1600     1650     1300     1700     1380   
                                           T        V       H0       H01     AOSYM     SMH    MOLCAS    ERIS     OPER     JKOP   
                                         7000   
                                        PAPT AO    

              2       5        0.60       700     1000      520     2100     7000   
                                         GEOM     BASIS   MCVARS     RHF     PAPT   

 PROGRAMS   *        TOTAL      PAPT    HF-SCF       INT
 CPU TIMES  *         0.97      0.12      0.10      0.61
 REAL TIME  *         4.86 SEC
 DISK USED  *        46.41 MB
 **********************************************************************************************************************************


 PROGRAM * MP3 (Closed-shell)     Authors: C. Hampel, H.-J. Werner, 1991, M. Deegan, P.J. Knowles, 1992


 Convergence thresholds:  THRVAR = 1.00D-08  THRDEN = 1.00D-06

 Number of core orbitals:           5 (   4   1 )
 Number of closed-shell orbitals:   4 (   3   1 )
 Number of external orbitals:      53 (  36  17 )

 Molecular orbitals read from record     7000.2  Type=PAPT/CANONICAL (state 1.1)

 Number of N-1 electron functions:               4
 Number of N-2 electron functions:              10
 Number of singly external CSFs:               125
 Number of doubly external CSFs:             11703
 Total number of CSFs:                       11829

 Length of J-op  integral file:               0.00 MB
 Length of K-op  integral file:               0.21 MB

 Integral transformation finished. Total CPU:   0.01 sec, npass=  1  Memory used:   0.11 MW
 Orbital energies read from record       7000.2  Type=PAPT/CANONICAL (state 1.1)

 Reference energy:                   -398.71291016

                        CORR.ENERGY   TOTAL ENERGY   ENERGY CHANGE
 MP2:                   -0.21831880  -398.93122896    -0.21831880

 SCS-MP2 correlation energy:           -0.22347695   (PS=  1.200000  PT=  0.333333)
 SCS-MP2 total energy:               -398.93638711

 MP3(D):                -0.21823415  -398.93114431     0.00008465



 RESULTS
 =======

  Reference energy                   -398.712910164359
  MP3 singlet pair energy              -0.158096897733
  MP3 triplet pair energy              -0.060137250935
  MP3 correlation energy               -0.218234148668

 !MP3 total energy                   -398.931144313027

 Timing summary (sec):

 STEP                 CPU(USER)    SYS     CPU(TOT)    WALL
 Transformation          0.02      0.01      0.03      0.12
 CCSD iterations         1.33      0.00      1.33      0.06

 Program statistics:

 Available memory in ccsd:               805306297
 Min. memory needed in ccsd:                 63163
 Max. memory used in ccsd:                   69791
 Max. memory used in cckext:                122546 ( 1 integral passes)



 **********************************************************************************************************************************
 DATASETS  * FILE   NREC   LENGTH (MB)   RECORD NAMES
              1      21       33.09       500      610      700      900      950      970     1000      129      960     1100   
                                          VAR    BASINP    GEOM    SYMINP    ZMAT    AOBASIS   BASIS     P2S    ABASIS      S 
                                         1400     1410     1200     1210     1080     1600     1650     1300     1700     1380   
                                           T        V       H0       H01     AOSYM     SMH    MOLCAS    ERIS     OPER     JKOP   
                                         7000   
                                        PAPT AO    

              2       5        0.60       700     1000      520     2100     7000   
                                         GEOM     BASIS   MCVARS     RHF     PAPT   

 PROGRAMS   *        TOTAL       MP3      PAPT    HF-SCF       INT
 CPU TIMES  *         1.05      0.08      0.12      0.10      0.61
 REAL TIME  *         5.09 SEC
 DISK USED  *        46.41 MB
 **********************************************************************************************************************************

 Dump information in style XML to xml output                                                                      

 Orbitals will not be exported.

 **********************************************************************************************************************************

 MP3/cc-pVTZ energy=   -398.931144313027

             MP3            PAPT          HF-SCF
   -398.93114431   -398.92660946   -398.71291016
 **********************************************************************************************************************************
 Molpro calculation terminated
