
 Working directory              : /home/jovyan/scratch/molpro.vKzOOO1Ugb/
 Global scratch directory       : /home/jovyan/scratch/molpro.vKzOOO1Ugb/
 Wavefunction directory         : /home/jovyan/wfu/
 Main file repository           : /home/jovyan/scratch/molpro.vKzOOO1Ugb/

 id        : cardiff

 Nodes                nprocs
 jupyter-c-2efrancisan    1
 GA implementation: MPI file
 GA implementation (serial work in mppx): MPI file

 Using customized tuning parameters: mindgm=1; mindgv=20; mindgc=4; mindgr=1; noblas=0; minvec=7
 default implementation of scratch files=df  


 Variables initialized (1031), CPU time= 0.00 sec
 
 
 
 geometry={
 6
  O     0.1640874    1.0771522    0.0000000
  C     0.1319097   -0.3310036    0.0000000
  H     1.1612146   -0.6758875    0.0000000
  H    -0.3605642   -0.7355506    0.8858582
  H    -0.3605642   -0.7355506   -0.8858582
  H    -0.7360833    1.4008402    0.0000000
 }
 basis=cc-pVDZ
 angstrom
 
 
 hf; mp3
 
 
 
 {put,xml;noorbitals,nobasis}
 Commands initialized (841), CPU time= 0.01 sec, 704 directives.
 Default parameters read. Elapsed time= 0.08 sec

 Checking input...
 Passed
1


                                         ***  PROGRAM SYSTEM MOLPRO  ***
                                       Copyright, TTI GmbH Stuttgart, 2015
                                    Version 2023.1 linked Mon Jun  5 13:27:10 2023


 **********************************************************************************************************************************
 LABEL *                                                                                                                                                                 
  (16 PROC) 64 bit serial version                                                        DATE: 02-Aug-23          TIME: 15:31:14  
 **********************************************************************************************************************************

 SHA1:             9738a14712571edd23541b6d7c4f3a3d766f8287
 **********************************************************************************************************************************

 Memory per process:       805 MW
 Total memory per node:   1074 MW
 Total GA space:           268 MW

 GA preallocation disabled
 GA check enabled

 Geometry recognized as XYZ


 Variable memory set to 805.3 MW

 SETTING BASIS          =    CC-PVDZ


 Recomputing integrals since basis changed


 Using spherical harmonics

 Library entry O      S cc-pVDZ              selected for orbital group  1
 Library entry O      P cc-pVDZ              selected for orbital group  1
 Library entry O      D cc-pVDZ              selected for orbital group  1
 Library entry C      S cc-pVDZ              selected for orbital group  2
 Library entry C      P cc-pVDZ              selected for orbital group  2
 Library entry C      D cc-pVDZ              selected for orbital group  2
 Library entry H      S cc-pVDZ              selected for orbital group  3
 Library entry H      P cc-pVDZ              selected for orbital group  3


 PROGRAM * SEWARD (Integral evaluation for generally contracted gaussian basis sets)     Author: Roland Lindh, 1990

 Geometry written to block  1 of record 700


 Point group  Cs  



 ATOMIC COORDINATES

 NR  ATOM    CHARGE       X              Y              Z

   1  O       8.00    0.310080247    2.035522653    0.000000000
   2  C       6.00    0.249273206   -0.625506150    0.000000000
   3  H       1.00    2.194377566   -1.277242266    0.000000000
   4  H       1.00   -0.681367588   -1.389989185    1.674029383
   5  H       1.00   -0.681367588   -1.389989185   -1.674029383
   6  H       1.00   -1.390995842    2.647204322    0.000000000

 Bond lengths in Bohr (Angstrom)

 1-2  2.661723462  1-6  1.807709690  2-3  2.051387563  2-4  2.062256282  2-5  2.062256282
     ( 1.408523398)     ( 0.956598772)     ( 1.085547549)     ( 1.091299028)     ( 1.091299028)

 Bond angles

  1-2-3  107.21515527   1-2-4  112.39036072   1-2-5  112.39036072   2-1-6  108.46879529

  3-2-4  108.06637220   3-2-5  108.06637220   4-2-5  108.53384977

 NUCLEAR CHARGE:                   18
 NUMBER OF PRIMITIVE AOS:          82
 NUMBER OF SYMMETRY AOS:           80
 NUMBER OF CONTRACTIONS:           48   (   33A'  +   15A"  )
 NUMBER OF INNER CORE ORBITALS:     0   (    0A'  +    0A"  )
 NUMBER OF OUTER CORE ORBITALS:     2   (    2A'  +    0A"  )
 NUMBER OF VALENCE ORBITALS:       12   (    9A'  +    3A"  )


 NUCLEAR REPULSION ENERGY   40.54140040

 Eigenvalues of metric

         1 0.960E-02 0.175E-01 0.363E-01 0.376E-01 0.471E-01 0.513E-01 0.737E-01 0.102E+00
         2 0.370E-01 0.470E-01 0.126E+00 0.177E+00 0.316E+00 0.469E+00 0.575E+00 0.912E+00


 Contracted 2-electron integrals neglected if value below      1.0D-11
 AO integral compression algorithm  1   Integral accuracy      1.0D-11

     2.359 MB (compressed) written to integral file ( 61.9%)


 NUMBER OF SORTED TWO-ELECTRON INTEGRALS:     366861.     BUFFER LENGTH:  32768
 NUMBER OF SEGMENTS:   1  SEGMENT LENGTH:     366861      RECORD LENGTH: 524288

 Memory used in sort:       0.92 MW

 SORT1 READ      445296. AND WROTE      361438. INTEGRALS IN      2 RECORDS. CPU TIME:     0.01 SEC, REAL TIME:     0.04 SEC
 SORT2 READ      361438. AND WROTE      366861. INTEGRALS IN      9 RECORDS. CPU TIME:     0.02 SEC, REAL TIME:     0.03 SEC

 FILE SIZES:   FILE 1:    32.5 MBYTE,  FILE 4:     8.5 MBYTE,   TOTAL:     40.9 MBYTE

 OPERATOR DM      FOR CENTER  0  COORDINATES:    0.000000    0.000000    0.000000


 **********************************************************************************************************************************
 DATASETS  * FILE   NREC   LENGTH (MB)   RECORD NAMES
              1      19       30.39       500      610      700      900      950      970     1000      129      960     1100   
                                          VAR    BASINP    GEOM    SYMINP    ZMAT    AOBASIS   BASIS     P2S    ABASIS      S 
                                         1400     1410     1200     1210     1080     1600     1650     1300     1700   
                                           T        V       H0       H01     AOSYM     SMH    MOLCAS    ERIS     OPER   

 PROGRAMS   *        TOTAL       INT
 CPU TIMES  *         0.62      0.48
 REAL TIME  *         1.62 SEC
 DISK USED  *        39.46 MB
 **********************************************************************************************************************************


 Program * Restricted Hartree-Fock

 Orbital guess generated from atomic densities. Full valence occupancy:   11   3

 Initial occupancy:   7   2

 NELEC=   18   SYM=1   MS2= 0   THRE=1.0D-08   THRD=3.2D-06   THRG=3.2D-06  HFMA2=F  DIIS_START=2   DIIS_MAX=10   DIIS_INCORE=F

 Level shifts:    0.00 (CLOSED)    0.00 (OPEN)    0.30 (GAP_MIN)

 ITER           ETOT              DE          GRAD        DDIFF     DIIS  NEXP   TIME(IT)  TIME(TOT)  DIAG
   1     -115.01487565    -115.01487565     0.00D+00     0.21D+00     0     0       0.00      0.00    start
   2     -115.04315102      -0.02827537     0.13D-01     0.27D-01     1     0       0.01      0.01    diag
   3     -115.04899452      -0.00584349     0.62D-02     0.83D-02     2     0       0.00      0.01    diag
   4     -115.04945345      -0.00045893     0.13D-02     0.27D-02     3     0       0.01      0.02    diag
   5     -115.04947374      -0.00002029     0.24D-03     0.56D-03     4     0       0.00      0.02    diag
   6     -115.04947450      -0.00000076     0.42D-04     0.12D-03     5     0       0.01      0.03    diag
   7     -115.04947453      -0.00000003     0.88D-05     0.20D-04     6     0       0.00      0.03    diag
   8     -115.04947453      -0.00000000     0.29D-05     0.69D-05     7     0       0.00      0.03    fixocc
   9     -115.04947453      -0.00000000     0.58D-06     0.19D-05     8     0       0.01      0.04    diag
  10     -115.04947453      -0.00000000     0.99D-07     0.23D-06     0     0       0.00      0.04    diag/orth

 Final occupancy:   7   2

 !RHF STATE 1.1 Energy               -115.049474531005
  RHF One-electron energy            -237.329353323717
  RHF Two-electron energy              81.738478392297
  RHF Kinetic energy                  114.985956468788
  RHF Nuclear energy                   40.541400400415
  RHF Virial quotient                  -1.000552398433

 !RHF STATE 1.1 Dipole moment          -0.58019807    -0.38752880     0.00000000
 Dipole moment /Debye                  -1.47471641    -0.98499996     0.00000000

 Orbital energies:

           1.1          2.1          3.1          4.1          5.1          6.1          7.1          8.1          9.1
    -20.548999   -11.272448    -1.354110    -0.922614    -0.686172    -0.588898    -0.495390     0.185211     0.224686

           1.2          2.2          3.2          4.2
     -0.615660    -0.441909     0.267847     0.644099


 HOMO      2.2    -0.441909 =     -12.0250eV
 LUMO      8.1     0.185211 =       5.0399eV
 LUMO-HOMO         0.627120 =      17.0648eV

 Orbitals saved in record  2100.2


 **********************************************************************************************************************************
 DATASETS  * FILE   NREC   LENGTH (MB)   RECORD NAMES
              1      19       30.39       500      610      700      900      950      970     1000      129      960     1100   
                                          VAR    BASINP    GEOM    SYMINP    ZMAT    AOBASIS   BASIS     P2S    ABASIS      S 
                                         1400     1410     1200     1210     1080     1600     1650     1300     1700   
                                           T        V       H0       H01     AOSYM     SMH    MOLCAS    ERIS     OPER   

              2       4        0.48       700     1000      520     2100   
                                         GEOM     BASIS   MCVARS     RHF  

 PROGRAMS   *        TOTAL    HF-SCF       INT
 CPU TIMES  *         0.67      0.04      0.48
 REAL TIME  *         1.72 SEC
 DISK USED  *        39.46 MB
 **********************************************************************************************************************************


 PROGRAM * MP3 (Closed-shell)     Authors: C. Hampel, H.-J. Werner, 1991, M. Deegan, P.J. Knowles, 1992


 Convergence thresholds:  THRVAR = 1.00D-08  THRDEN = 1.00D-06

 Number of core orbitals:           2 (   2   0 )
 Number of closed-shell orbitals:   7 (   5   2 )
 Number of external orbitals:      39 (  26  13 )

 Molecular orbitals read from record     2100.2  Type=RHF/CANONICAL  

 Number of N-1 electron functions:               7
 Number of N-2 electron functions:              28
 Number of singly external CSFs:               156
 Number of doubly external CSFs:             19149
 Total number of CSFs:                       19306

 Length of J-op  integral file:               0.00 MB
 Length of K-op  integral file:               0.15 MB

 Integral transformation finished. Total CPU:   0.01 sec, npass=  1  Memory used:   0.11 MW

 Reference energy:                   -115.04947453

                        CORR.ENERGY   TOTAL ENERGY   ENERGY CHANGE
 MP2:                   -0.33776685  -115.38724138    -0.33776685

 SCS-MP2 correlation energy:           -0.33616384   (PS=  1.200000  PT=  0.333333)
 SCS-MP2 total energy:               -115.38563837

 MP3(D):                -0.35740408  -115.40687861    -0.01963723



 RESULTS
 =======

  Reference energy                   -115.049474531005
  MP3 singlet pair energy              -0.244787983957
  MP3 triplet pair energy              -0.112616092350
  MP3 correlation energy               -0.357404076307

 !MP3 total energy                   -115.406878607311

 Timing summary (sec):

 STEP                 CPU(USER)    SYS     CPU(TOT)    WALL
 Transformation          0.01      0.00      0.01      0.13
 CCSD iterations         1.01      0.01      1.02      0.03

 Program statistics:

 Available memory in ccsd:               805306165
 Min. memory needed in ccsd:                 72083
 Max. memory used in ccsd:                   85659
 Max. memory used in cckext:                125084 ( 1 integral passes)



 **********************************************************************************************************************************
 DATASETS  * FILE   NREC   LENGTH (MB)   RECORD NAMES
              1      20       30.80       500      610      700      900      950      970     1000      129      960     1100   
                                          VAR    BASINP    GEOM    SYMINP    ZMAT    AOBASIS   BASIS     P2S    ABASIS      S 
                                         1400     1410     1200     1210     1080     1600     1650     1300     1700     1380   
                                           T        V       H0       H01     AOSYM     SMH    MOLCAS    ERIS     OPER     JKOP   

              2       4        0.48       700     1000      520     2100   
                                         GEOM     BASIS   MCVARS     RHF  

 PROGRAMS   *        TOTAL       MP3    HF-SCF       INT
 CPU TIMES  *         0.74      0.07      0.04      0.48
 REAL TIME  *         1.94 SEC
 DISK USED  *        39.46 MB
 **********************************************************************************************************************************

 Dump information in style XML to xml output                                                                      

 Orbitals will not be exported.

 **********************************************************************************************************************************

 MP3/cc-pVDZ energy=   -115.406878607311

             MP3          HF-SCF
   -115.40687861   -115.04947453
 **********************************************************************************************************************************
 Molpro calculation terminated
