
 Working directory              : /home/jovyan/scratch/molpro.t4Ws6HKewT/
 Global scratch directory       : /home/jovyan/scratch/molpro.t4Ws6HKewT/
 Wavefunction directory         : /home/jovyan/wfu/
 Main file repository           : /home/jovyan/scratch/molpro.t4Ws6HKewT/

 id        : cardiff

 Nodes                nprocs
 jupyter-c-2efrancisan    1
 GA implementation: MPI file
 GA implementation (serial work in mppx): MPI file

 Using customized tuning parameters: mindgm=1; mindgv=20; mindgc=4; mindgr=1; noblas=0; minvec=7
 default implementation of scratch files=df  


 Variables initialized (1031), CPU time= 0.01 sec
 
 
 
 geometry={
 14
    S   0.66677564042217      2.05437369372826      0.14977685320868
    N   -1.62081432833388      0.80292358760807     -0.02554570859412
    N   0.24495718218741     -0.52424926464673     -0.47133129537914
    C   -0.28033596794244      0.75225082307584     -0.12048620095292
    H   -2.18417445531290     -0.02032755647558     -0.11685858131604
    H   -2.05472923451931      1.65770956972555      0.26621960191335
    H   -0.02818719149709     -0.76360303086743     -1.41523482766293
    C   -0.07866698938617     -1.59927786046656      0.45900259148440
    C   0.51260491184855     -2.90920938509984     -0.01005743723088
    H   0.34555462453577     -1.32170941543592      1.42179560735136
    H   -1.15768883356433     -1.73007712243441      0.61658654065119
    H   1.59476390318716     -2.85060081564529     -0.07180519069143
    H   0.24448098693695     -3.70870853294791      0.67442803809034
    H   0.12764975143810     -3.17768469011805     -0.99299999087185
 }
 basis=cc-pVDZ
 angstrom
 
 
 hf; ccsd
 
 
 
 {put,xml;noorbitals,nobasis}
 Commands initialized (841), CPU time= 0.01 sec, 704 directives.
 Default parameters read. Elapsed time= 0.08 sec

 Checking input...
 Passed
1


                                         ***  PROGRAM SYSTEM MOLPRO  ***
                                       Copyright, TTI GmbH Stuttgart, 2015
                                    Version 2023.1 linked Mon Jun  5 13:27:10 2023


 **********************************************************************************************************************************
 LABEL *                                                                                                                                                                 
  (16 PROC) 64 bit serial version                                                        DATE: 04-Aug-23          TIME: 06:05:38  
 **********************************************************************************************************************************

 SHA1:             9738a14712571edd23541b6d7c4f3a3d766f8287
 **********************************************************************************************************************************

 Memory per process:       805 MW
 Total memory per node:   1074 MW
 Total GA space:           268 MW

 GA preallocation disabled
 GA check enabled

 Geometry recognized as XYZ


 Variable memory set to 805.3 MW

 SETTING BASIS          =    CC-PVDZ


 Recomputing integrals since basis changed


 Using spherical harmonics

 Library entry S      S cc-pVDZ              selected for orbital group  1
 Library entry S      P cc-pVDZ              selected for orbital group  1
 Library entry S      D cc-pVDZ              selected for orbital group  1
 Library entry N      S cc-pVDZ              selected for orbital group  2
 Library entry N      P cc-pVDZ              selected for orbital group  2
 Library entry N      D cc-pVDZ              selected for orbital group  2
 Library entry C      S cc-pVDZ              selected for orbital group  3
 Library entry C      P cc-pVDZ              selected for orbital group  3
 Library entry C      D cc-pVDZ              selected for orbital group  3
 Library entry H      S cc-pVDZ              selected for orbital group  4
 Library entry H      P cc-pVDZ              selected for orbital group  4


 PROGRAM * SEWARD (Integral evaluation for generally contracted gaussian basis sets)     Author: Roland Lindh, 1990

 Geometry written to block  1 of record 700


 Point group  C1  



 ATOMIC COORDINATES

 NR  ATOM    CHARGE       X              Y              Z

   1  S      16.00    1.260023347    3.882203639    0.283037232
   2  N       7.00   -3.062895179    1.517305680   -0.048274393
   3  N       7.00    0.462901987   -0.990687531   -0.890687062
   4  C       6.00   -0.529758202    1.421548033   -0.227685922
   5  H       1.00   -4.127491529   -0.038413515   -0.220830714
   6  H       1.00   -3.882875514    3.132617081    0.503082137
   7  H       1.00   -0.053266072   -1.443000596   -2.674406226
   8  C       6.00   -0.148659065   -3.022197153    0.867389188
   9  C       6.00    0.968682894   -5.497608977   -0.019005802
  10  H       1.00    0.653003601   -2.497668812    2.686804303
  11  H       1.00   -2.187714833   -3.269371936    1.165179694
  12  H       1.00    3.013667010   -5.386854832   -0.135692145
  13  H       1.00    0.462002108   -7.008443403    1.274484283
  14  H       1.00    0.241223070   -6.004953775   -1.876498025

 Bond lengths in Bohr (Angstrom)

 1-4  3.085284776  2-4  2.541287266  2-5  1.892987924  2-6  1.893566131  3-4  2.691435524
     ( 1.632662392)     ( 1.344791308)     ( 1.001726070)     ( 1.002032044)     ( 1.424246344)

  3- 7  1.911196125   3- 8  2.755334892   8- 9  2.856888662   8-10  2.056225759   8-11  2.075457295
       ( 1.011361435)       ( 1.458060433)       ( 1.511800374)       ( 1.088107812)       ( 1.098284703)

  9-12  2.051302567   9-13  2.052428484   9-14  2.058366803
       ( 1.085502571)       ( 1.086098381)       ( 1.089240804)

 Bond angles

  1-4-2  122.44592397   1-4-3  122.79495239   2-4-3  114.75897312   3-8-9  110.73663366

  3- 8-10  106.85583415   3- 8-11  113.41704826   4- 2- 5  121.54600374   4- 2- 6  118.96965253

  4-3-7  110.02382613   4-3-8  114.94669489   5-2-6  118.95183468   7-3-8  111.16567019

  8- 9-12  111.14726826   8- 9-13  110.22688563   8- 9-14  110.81378384   9- 8-10  110.06485234

  9- 8-11  109.00015869  10- 8-11  106.64587772  12- 9-13  108.76593910  12- 9-14  108.31871862

 13- 9-14  107.45971685

 NUCLEAR CHARGE:                   56
 NUMBER OF PRIMITIVE AOS:         233
 NUMBER OF SYMMETRY AOS:          227
 NUMBER OF CONTRACTIONS:          128   (  128A   )
 NUMBER OF INNER CORE ORBITALS:     1   (    1A   )
 NUMBER OF OUTER CORE ORBITALS:     9   (    9A   )
 NUMBER OF VALENCE ORBITALS:       32   (   32A   )


 NUCLEAR REPULSION ENERGY  292.83857889


 Eigenvalues of metric

         1 0.282E-02 0.398E-02 0.473E-02 0.572E-02 0.872E-02 0.176E-01 0.207E-01 0.226E-01


 Contracted 2-electron integrals neglected if value below      1.0D-11
 AO integral compression algorithm  1   Integral accuracy      1.0D-11

     133.169 MB (compressed) written to integral file ( 46.3%)


 NUMBER OF SORTED TWO-ELECTRON INTEGRALS:   34084896.     BUFFER LENGTH:  32768
 NUMBER OF SEGMENTS:   3  SEGMENT LENGTH:   15998004      RECORD LENGTH: 524288

 Memory used in sort:      16.56 MW

 SORT1 READ    35965961. AND WROTE    31384103. INTEGRALS IN     91 RECORDS. CPU TIME:     0.45 SEC, REAL TIME:     0.69 SEC
 SORT2 READ    31384103. AND WROTE    34084896. INTEGRALS IN    508 RECORDS. CPU TIME:     0.63 SEC, REAL TIME:     0.78 SEC

 FILE SIZES:   FILE 1:   164.0 MBYTE,  FILE 4:   381.7 MBYTE,   TOTAL:    545.8 MBYTE

 OPERATOR DM      FOR CENTER  0  COORDINATES:    0.000000    0.000000    0.000000


 **********************************************************************************************************************************
 DATASETS  * FILE   NREC   LENGTH (MB)   RECORD NAMES
              1      19      143.09       500      610      700      900      950      970     1000      129      960     1100   
                                          VAR    BASINP    GEOM    SYMINP    ZMAT    AOBASIS   BASIS     P2S    ABASIS      S 
                                         1400     1410     1200     1210     1080     1600     1650     1300     1700   
                                           T        V       H0       H01     AOSYM     SMH    MOLCAS    ERIS     OPER   

 PROGRAMS   *        TOTAL       INT
 CPU TIMES  *         5.42      5.29
 REAL TIME  *         6.95 SEC
 DISK USED  *       521.04 MB
 **********************************************************************************************************************************


 Program * Restricted Hartree-Fock

 Orbital guess generated from atomic densities. Full valence occupancy:   42

 Initial occupancy:  28

 NELEC=   56   SYM=1   MS2= 0   THRE=1.0D-08   THRD=3.2D-06   THRG=3.2D-06  HFMA2=F  DIIS_START=2   DIIS_MAX=10   DIIS_INCORE=F

 Level shifts:    0.00 (CLOSED)    0.00 (OPEN)    0.30 (GAP_MIN)

 ITER           ETOT              DE          GRAD        DDIFF     DIIS  NEXP   TIME(IT)  TIME(TOT)  DIAG
   1     -624.58695523    -624.58695523     0.00D+00     0.11D+00     0     0       0.38      0.74    start
   2     -624.66806814      -0.08111290     0.52D-02     0.15D-01     1     0       0.37      1.11    diag
   3     -624.69031227      -0.02224413     0.28D-02     0.53D-02     2     0       0.38      1.49    diag
   4     -624.69294418      -0.00263191     0.82D-03     0.17D-02     3     0       0.38      1.87    diag
   5     -624.69315362      -0.00020943     0.19D-03     0.48D-03     4     0       0.37      2.24    diag
   6     -624.69317891      -0.00002529     0.60D-04     0.18D-03     5     0       0.38      2.62    diag
   7     -624.69318216      -0.00000326     0.22D-04     0.62D-04     6     0       0.38      3.00    diag
   8     -624.69318250      -0.00000034     0.68D-05     0.22D-04     7     0       0.38      3.38    fixocc
   9     -624.69318252      -0.00000002     0.16D-05     0.46D-05     8     0       0.38      3.76    diag
  10     -624.69318253      -0.00000000     0.60D-06     0.17D-05     9     0       0.38      4.14    diag/orth
  11     -624.69318253      -0.00000000     0.18D-06     0.50D-06     0     0       0.38      4.52    diag

 Final occupancy:  28

 !RHF STATE 1.1 Energy               -624.693182525424
  RHF One-electron energy           -1438.870747013443
  RHF Two-electron energy             521.338985600030
  RHF Kinetic energy                  624.625122177019
  RHF Nuclear energy                  292.838578887989
  RHF Virial quotient                  -1.000108961913

 !RHF STATE 1.1 Dipole moment          -1.68820120    -1.45736040    -0.15358906
 Dipole moment /Debye                  -4.29097943    -3.70424066    -0.39038446

 Orbital energies:

           1.1          2.1          3.1          4.1          5.1          6.1          7.1          8.1          9.1         10.1
    -91.886871   -15.607806   -15.569606   -11.370061   -11.274759   -11.233812    -8.892195    -6.574526    -6.571781    -6.570295

          11.1         12.1         13.1         14.1         15.1         16.1         17.1         18.1         19.1         20.1
     -1.301179    -1.197606    -1.034671    -0.975549    -0.854811    -0.799994    -0.740897    -0.697084    -0.652424    -0.618101

          21.1         22.1         23.1         24.1         25.1         26.1         27.1         28.1         29.1         30.1
     -0.560714    -0.535205    -0.518782    -0.511419    -0.496465    -0.403761    -0.330373    -0.315634     0.121843     0.156582


 HOMO     28.1    -0.315634 =      -8.5888eV
 LUMO     29.1     0.121843 =       3.3155eV
 LUMO-HOMO         0.437477 =      11.9043eV

 Orbitals saved in record  2100.2


 **********************************************************************************************************************************
 DATASETS  * FILE   NREC   LENGTH (MB)   RECORD NAMES
              1      19      143.09       500      610      700      900      950      970     1000      129      960     1100   
                                          VAR    BASINP    GEOM    SYMINP    ZMAT    AOBASIS   BASIS     P2S    ABASIS      S 
                                         1400     1410     1200     1210     1080     1600     1650     1300     1700   
                                           T        V       H0       H01     AOSYM     SMH    MOLCAS    ERIS     OPER   

              2       4        0.86       700     1000      520     2100   
                                         GEOM     BASIS   MCVARS     RHF  

 PROGRAMS   *        TOTAL    HF-SCF       INT
 CPU TIMES  *         9.94      4.52      5.29
 REAL TIME  *        11.86 SEC
 DISK USED  *       521.04 MB
 **********************************************************************************************************************************


 PROGRAM * CCSD (Closed-shell coupled cluster)     Authors: C. Hampel, H.-J. Werner, 1991, M. Deegan, P.J. Knowles, 1992


 Convergence thresholds:  THRVAR = 1.00D-08  THRDEN = 1.00D-06

 Number of core orbitals:          10 (  10 )
 Number of closed-shell orbitals:  18 (  18 )
 Number of external orbitals:     100 ( 100 )

 Molecular orbitals read from record     2100.2  Type=RHF/CANONICAL  

 Number of N-1 electron functions:              18
 Number of N-2 electron functions:             171
 Number of singly external CSFs:              1800
 Number of doubly external CSFs:           1620900
 Total number of CSFs:                     1622701

 Length of J-op  integral file:               0.00 MB
 Length of K-op  integral file:               1.19 MB
 Length of 3-ext integral record:             0.00 MB

 Integral transformation finished. Total CPU:   2.60 sec, npass=  1  Memory used:  25.00 MW

 Reference energy:                   -624.69318253

 MP2 singlet pair energy:              -0.54929260
 MP2 triplet pair energy:              -0.33494729
 MP2 correlation energy:               -0.88423989
 MP2 total energy:                   -625.57742242

 SCS-MP2 correlation energy:           -0.86756277   (PS=  1.200000  PT=  0.333333)
 SCS-MP2 total energy:               -625.56074530

 ITER.      SQ.NORM     CORR.ENERGY   TOTAL ENERGY   ENERGY CHANGE        DEN1      VAR(S)    VAR(P)  DIIS     TIME  TIME/IT
   1      1.33101088    -0.93771149  -625.63089402    -0.05347160    -0.02814561  0.55D-02  0.55D-02  1  1    22.87    10.44
   2      1.35780033    -0.94239725  -625.63557977    -0.00468575    -0.02482758  0.17D-03  0.81D-03  2  2    33.55    10.71
   3      1.36694867    -0.94287424  -625.63605676    -0.00047699    -0.00412169  0.16D-03  0.41D-04  3  3    44.05    10.74
   4      1.37112035    -0.94289998  -625.63608250    -0.00002574    -0.00114661  0.23D-04  0.75D-05  4  4    54.46    10.73
   5      1.37304064    -0.94290131  -625.63608384    -0.00000134    -0.00031046  0.43D-05  0.12D-05  5  5    64.80    10.71
   6      1.37373039    -0.94287431  -625.63605683     0.00002701    -0.00006544  0.53D-06  0.19D-06  6  6    75.19    10.70
   7      1.37392372    -0.94286787  -625.63605039     0.00000644    -0.00001109  0.13D-06  0.34D-07  6  2    85.50    10.73
   8      1.37396793    -0.94286818  -625.63605071    -0.00000032    -0.00000280  0.29D-07  0.75D-08  6  1    95.78    10.74
   9      1.37398632    -0.94286769  -625.63605021     0.00000050    -0.00000124  0.57D-08  0.18D-08  6  3   106.07    10.75

 Norm of t1 vector:      0.12382134      S-energy:     0.00000299      T1 diagnostic:  0.01459249
                                                                       D1 diagnostic:  0.07100957
                                                                       D2 diagnostic:  0.17263223 (external, symmetry=1)

 Doubles amplitudes (print threshold =  0.500E-01):

         I         J         SYM. A    SYM. B    A         B      T(IJ, AB)

        17        17         1         1         1         1     -0.08912938


 RESULTS
 =======

  Reference energy                   -624.693182525424
  CCSD singlet pair energy             -0.637125860962
  CCSD triplet pair energy             -0.305744813837
  CCSD correlation energy              -0.942867685831

 !CCSD total energy                  -625.636050211255

 Timing summary (sec):

 STEP                 CPU(USER)    SYS     CPU(TOT)    WALL
 Transformation          2.72      0.29      3.01      3.23
 CCSD iterations       103.52      2.18    105.70     96.99

 Program statistics:

 Available memory in ccsd:               805305044
 Min. memory needed in ccsd:               4254900
 Max. memory used in ccsd:                 5671788
 Max. memory used in cckext:               5849661 ( 9 integral passes)



 **********************************************************************************************************************************
 DATASETS  * FILE   NREC   LENGTH (MB)   RECORD NAMES
              1      20      244.84       500      610      700      900      950      970     1000      129      960     1100   
                                          VAR    BASINP    GEOM    SYMINP    ZMAT    AOBASIS   BASIS     P2S    ABASIS      S 
                                         1400     1410     1200     1210     1080     1600     1650     1300     1700     1380   
                                           T        V       H0       H01     AOSYM     SMH    MOLCAS    ERIS     OPER     JKOP   

              2       4        0.86       700     1000      520     2100   
                                         GEOM     BASIS   MCVARS     RHF  

 PROGRAMS   *        TOTAL      CCSD    HF-SCF       INT
 CPU TIMES  *       106.06     96.12      4.52      5.29
 REAL TIME  *       112.14 SEC
 DISK USED  *       521.04 MB
 **********************************************************************************************************************************

 Dump information in style XML to xml output                                                                      

 Orbitals will not be exported.

 **********************************************************************************************************************************

 CCSD/cc-pVDZ energy=   -625.636050211255

            CCSD          HF-SCF
   -625.63605021   -624.69318253
 **********************************************************************************************************************************
 Molpro calculation terminated
