
 Working directory              : /home/jovyan/scratch/molpro.0Cur2wGxBk/
 Global scratch directory       : /home/jovyan/scratch/molpro.0Cur2wGxBk/
 Wavefunction directory         : /home/jovyan/wfu/
 Main file repository           : /home/jovyan/scratch/molpro.0Cur2wGxBk/

 id        : cardiff

 Nodes                nprocs
 jupyter-c-2efrancisan    1
 GA implementation: MPI file
 GA implementation (serial work in mppx): MPI file

 Using customized tuning parameters: mindgm=1; mindgv=20; mindgc=4; mindgr=1; noblas=0; minvec=7
 default implementation of scratch files=df  


 Variables initialized (1031), CPU time= 0.00 sec
 
 
 
 geometry={
 4
  O    -0.0044695   -0.7207736    0.0000000
  O     0.0044695    0.7207736    0.0000000
  H    -0.9535873   -0.8702773    0.0000000
  H     0.9535873    0.8702773    0.0000000
 }
 basis=cc-pVTZ
 angstrom
 
 
 hf; ccsd(t)
 
 
 
 {put,xml;noorbitals,nobasis}
 Commands initialized (841), CPU time= 0.01 sec, 704 directives.
 Default parameters read. Elapsed time= 0.09 sec

 Checking input...
 Passed
1


                                         ***  PROGRAM SYSTEM MOLPRO  ***
                                       Copyright, TTI GmbH Stuttgart, 2015
                                    Version 2023.1 linked Mon Jun  5 13:27:10 2023


 **********************************************************************************************************************************
 LABEL *                                                                                                                                                                 
  (16 PROC) 64 bit serial version                                                        DATE: 04-Aug-23          TIME: 11:17:58  
 **********************************************************************************************************************************

 SHA1:             9738a14712571edd23541b6d7c4f3a3d766f8287
 **********************************************************************************************************************************

 Memory per process:       805 MW
 Total memory per node:   1074 MW
 Total GA space:           268 MW

 GA preallocation disabled
 GA check enabled

 Geometry recognized as XYZ


 Variable memory set to 805.3 MW

 SETTING BASIS          =    CC-PVTZ


 Recomputing integrals since basis changed


 Using spherical harmonics

 Library entry O      S cc-pVTZ              selected for orbital group  1
 Library entry O      P cc-pVTZ              selected for orbital group  1
 Library entry O      D cc-pVTZ              selected for orbital group  1
 Library entry O      F cc-pVTZ              selected for orbital group  1
 Library entry H      S cc-pVTZ              selected for orbital group  2
 Library entry H      P cc-pVTZ              selected for orbital group  2
 Library entry H      D cc-pVTZ              selected for orbital group  2


 PROGRAM * SEWARD (Integral evaluation for generally contracted gaussian basis sets)     Author: Roland Lindh, 1990

 Geometry written to block  1 of record 700


 Point group  C2h 



 ATOMIC COORDINATES

 NR  ATOM    CHARGE       X              Y              Z

   1  O       8.00   -0.008446131   -1.362064702    0.000000000
   2  O       8.00    0.008446131    1.362064702    0.000000000
   3  H       1.00   -1.802018833   -1.644585749    0.000000000
   4  H       1.00    1.802018833    1.644585749    0.000000000

 Bond lengths in Bohr (Angstrom)

 1-2  2.724181777  1-3  1.815687523  2-4  1.815687523
     ( 1.441574915)     ( 0.960820459)     ( 0.960820459)

 Bond angles

  1-2-4   99.30688336   2-1-3   99.30688336

 NUCLEAR CHARGE:                   18
 NUMBER OF PRIMITIVE AOS:         128
 NUMBER OF SYMMETRY AOS:          116
 NUMBER OF CONTRACTIONS:           88   (   30Ag  +   14Au  +   30Bu  +   14Bg  )
 NUMBER OF INNER CORE ORBITALS:     0   (    0Ag  +    0Au  +    0Bu  +    0Bg  )
 NUMBER OF OUTER CORE ORBITALS:     2   (    1Ag  +    0Au  +    1Bu  +    0Bg  )
 NUMBER OF VALENCE ORBITALS:       10   (    4Ag  +    1Au  +    4Bu  +    1Bg  )


 NUCLEAR REPULSION ENERGY   37.06917144

 Eigenvalues of metric

         1 0.367E-02 0.685E-02 0.108E-01 0.437E-01 0.479E-01 0.785E-01 0.870E-01 0.121E+00
         2 0.450E-01 0.119E+00 0.264E+00 0.468E+00 0.497E+00 0.560E+00 0.747E+00 0.108E+01
         3 0.212E-02 0.490E-02 0.822E-02 0.193E-01 0.465E-01 0.512E-01 0.904E-01 0.107E+00
         4 0.433E-01 0.107E+00 0.183E+00 0.302E+00 0.387E+00 0.570E+00 0.749E+00 0.856E+00


 Contracted 2-electron integrals neglected if value below      1.0D-11
 AO integral compression algorithm  1   Integral accuracy      1.0D-11

     14.156 MB (compressed) written to integral file ( 58.5%)


 NUMBER OF SORTED TWO-ELECTRON INTEGRALS:    2024670.     BUFFER LENGTH:  32768
 NUMBER OF SEGMENTS:   1  SEGMENT LENGTH:    2024670      RECORD LENGTH: 524288

 Memory used in sort:       2.58 MW

 SORT1 READ     3036152. AND WROTE     2024670. INTEGRALS IN      6 RECORDS. CPU TIME:     0.06 SEC, REAL TIME:     0.15 SEC
 SORT2 READ     2024670. AND WROTE     2024670. INTEGRALS IN     54 RECORDS. CPU TIME:     0.10 SEC, REAL TIME:     0.12 SEC

 FILE SIZES:   FILE 1:    44.4 MBYTE,  FILE 4:    25.2 MBYTE,   TOTAL:     69.6 MBYTE

 OPERATOR DM      FOR CENTER  0  COORDINATES:    0.000000    0.000000    0.000000


 **********************************************************************************************************************************
 DATASETS  * FILE   NREC   LENGTH (MB)   RECORD NAMES
              1      19       37.91       500      610      700      900      950      970     1000      129      960     1100   
                                          VAR    BASINP    GEOM    SYMINP    ZMAT    AOBASIS   BASIS     P2S    ABASIS      S 
                                         1400     1410     1200     1210     1080     1600     1650     1300     1700   
                                           T        V       H0       H01     AOSYM     SMH    MOLCAS    ERIS     OPER   

 PROGRAMS   *        TOTAL       INT
 CPU TIMES  *         1.12      0.99
 REAL TIME  *         2.28 SEC
 DISK USED  *        66.78 MB
 **********************************************************************************************************************************


 Program * Restricted Hartree-Fock

 Orbital guess generated from atomic densities. Full valence occupancy:    5   1   5   1

 Initial occupancy:   4   1   3   1

 NELEC=   18   SYM=1   MS2= 0   THRE=1.0D-08   THRD=3.2D-06   THRG=3.2D-06  HFMA2=F  DIIS_START=2   DIIS_MAX=10   DIIS_INCORE=F

 Level shifts:    0.00 (CLOSED)    0.00 (OPEN)    0.30 (GAP_MIN)

 ITER           ETOT              DE          GRAD        DDIFF     DIIS  NEXP   TIME(IT)  TIME(TOT)  DIAG
   1     -150.80992644    -150.80992644     0.00D+00     0.17D+00     0     0       0.01      0.02    start
   2     -150.83449700      -0.02457056     0.12D-01     0.16D-01     1     0       0.01      0.03    diag
   3     -150.83546982      -0.00097283     0.25D-02     0.24D-02     2     0       0.02      0.05    diag
   4     -150.83558549      -0.00011567     0.65D-03     0.93D-03     3     0       0.01      0.06    diag
   5     -150.83559783      -0.00001234     0.23D-03     0.27D-03     4     0       0.01      0.07    diag
   6     -150.83559907      -0.00000124     0.58D-04     0.80D-04     5     0       0.01      0.08    diag
   7     -150.83559913      -0.00000006     0.11D-04     0.18D-04     6     0       0.01      0.09    diag
   8     -150.83559913      -0.00000000     0.27D-05     0.52D-05     7     0       0.01      0.10    fixocc
   9     -150.83559913      -0.00000000     0.70D-06     0.12D-05     8     0       0.01      0.11    diag
  10     -150.83559913      -0.00000000     0.89D-07     0.11D-06     0     0       0.01      0.12    diag/orth

 Final occupancy:   4   1   3   1

 !RHF STATE 1.1 Energy               -150.835599134186
  RHF One-electron energy            -281.899550522983
  RHF Two-electron energy              93.994779948475
  RHF Kinetic energy                  150.654959118284
  RHF Nuclear energy                   37.069171440323
  RHF Virial quotient                  -1.001199031329

 !RHF STATE 1.1 Dipole moment           0.00000000     0.00000000     0.00000000
 Dipole moment /Debye                   0.00000000     0.00000000     0.00000000

 Orbital energies:

           1.1          2.1          3.1          4.1          5.1          6.1
    -20.622615    -1.475785    -0.670013    -0.543420     0.153053     0.539799

           1.2          2.2          3.2
     -0.628112     0.753725     0.958011

           1.3          2.3          3.3          4.3          5.3
    -20.622328    -1.210165    -0.728297     0.157612     0.284249

           1.4          2.4          3.4
     -0.454260     0.825661     0.854338


 HOMO      1.4    -0.454260 =     -12.3611eV
 LUMO      5.1     0.153053 =       4.1648eV
 LUMO-HOMO         0.607314 =      16.5258eV

 Orbitals saved in record  2100.2


 **********************************************************************************************************************************
 DATASETS  * FILE   NREC   LENGTH (MB)   RECORD NAMES
              1      19       37.91       500      610      700      900      950      970     1000      129      960     1100   
                                          VAR    BASINP    GEOM    SYMINP    ZMAT    AOBASIS   BASIS     P2S    ABASIS      S 
                                         1400     1410     1200     1210     1080     1600     1650     1300     1700   
                                           T        V       H0       H01     AOSYM     SMH    MOLCAS    ERIS     OPER   

              2       4        0.47       700     1000      520     2100   
                                         GEOM     BASIS   MCVARS     RHF  

 PROGRAMS   *        TOTAL    HF-SCF       INT
 CPU TIMES  *         1.24      0.12      0.99
 REAL TIME  *         2.43 SEC
 DISK USED  *        66.78 MB
 **********************************************************************************************************************************


 PROGRAM * CCSD (Closed-shell coupled cluster)     Authors: C. Hampel, H.-J. Werner, 1991, M. Deegan, P.J. Knowles, 1992


 Convergence thresholds:  THRVAR = 1.00D-08  THRDEN = 1.00D-06

 CCSD(T)     terms to be evaluated (factor= 1.000)


 Number of core orbitals:           2 (   1   0   1   0 )
 Number of closed-shell orbitals:   7 (   3   1   2   1 )
 Number of external orbitals:      79 (  26  13  27  13 )

 Molecular orbitals read from record     2100.2  Type=RHF/CANONICAL  

 Number of N-1 electron functions:               7
 Number of N-2 electron functions:              28
 Number of singly external CSFs:               158
 Number of doubly external CSFs:             39323
 Total number of CSFs:                       39482

 Length of J-op  integral file:               0.00 MB
 Length of K-op  integral file:               0.21 MB
 Length of 3-ext integral record:             0.00 MB

 Memory could be reduced to 1.36 Mwords without degradation in triples

 Integral transformation finished. Total CPU:   0.04 sec, npass=  1  Memory used:   0.34 MW

 Reference energy:                   -150.83559913

 MP2 singlet pair energy:              -0.31086628
 MP2 triplet pair energy:              -0.18441730
 MP2 correlation energy:               -0.49528358
 MP2 total energy:                   -151.33088271

 SCS-MP2 correlation energy:           -0.48778807   (PS=  1.200000  PT=  0.333333)
 SCS-MP2 total energy:               -151.32338721

 ITER.      SQ.NORM     CORR.ENERGY   TOTAL ENERGY   ENERGY CHANGE        DEN1      VAR(S)    VAR(P)  DIIS     TIME  TIME/IT
   1      1.11733807    -0.50190986  -151.33750900    -0.00662628     0.00610869  0.15D-02  0.22D-02  1  1     1.58     0.07
   2      1.12547961    -0.50260473  -151.33820387    -0.00069487    -0.01071182  0.35D-04  0.30D-03  2  2     1.65     0.07
   3      1.12889359    -0.50273996  -151.33833910    -0.00013523    -0.00223572  0.11D-04  0.19D-04  3  3     1.71     0.07
   4      1.13006166    -0.50278566  -151.33838480    -0.00004570    -0.00056365  0.94D-06  0.19D-05  4  4     1.78     0.07
   5      1.13032584    -0.50278381  -151.33838294     0.00000186    -0.00009137  0.31D-06  0.17D-06  5  5     1.84     0.07
   6      1.13037963    -0.50278139  -151.33838053     0.00000242    -0.00000610  0.31D-07  0.22D-07  6  6     1.91     0.07
   7      1.13038968    -0.50278225  -151.33838138    -0.00000086    -0.00000052  0.35D-08  0.30D-08  6  1     1.98     0.07
   8      1.13039138    -0.50278224  -151.33838137     0.00000001     0.00000189  0.14D-09  0.24D-09  6  2     2.04     0.07

 Norm of t1 vector:      0.05084898      S-energy:    -0.00000045      T1 diagnostic:  0.00960955
                                                                       D1 diagnostic:  0.02164061
                                                                       D2 diagnostic:  0.17479183 (internal)

 Doubles amplitudes (print threshold =  0.500E-01):

         I         J         SYM. A    SYM. B    A         B      T(IJ, AB)

         2         2         3         3         2         2     -0.06404854


 Total CPU time for triples:      0.39 sec


 RESULTS
 =======

  Reference energy                   -150.835599134186
  CCSD singlet pair energy             -0.341416202972
  CCSD triplet pair energy             -0.161365584742
  CCSD correlation energy              -0.502782238106

  Triples (T) contribution             -0.018175819363
  Total correlation energy             -0.520958057469

  CCSD total energy                  -151.338381372292
  CCSD[T] energy                     -151.357102336833
  CCSD-T energy                      -151.356243283974
 !CCSD(T) total energy               -151.356557191655

 Timing summary (sec):

 STEP                 CPU(USER)    SYS     CPU(TOT)    WALL
 Transformation          0.05      0.01      0.06      0.06
 CCSD iterations         2.01      0.07      2.08      0.62
 Triples                 0.39      0.00      0.39      0.40

 Program statistics:

 Available memory in ccsd:               805306168
 Min. memory needed in ccsd:                134601
 Max. memory used in ccsd:                  165586
 Max. memory used in cckext:                185023 ( 8 integral passes)



 **********************************************************************************************************************************
 DATASETS  * FILE   NREC   LENGTH (MB)   RECORD NAMES
              1      20       41.99       500      610      700      900      950      970     1000      129      960     1100   
                                          VAR    BASINP    GEOM    SYMINP    ZMAT    AOBASIS   BASIS     P2S    ABASIS      S 
                                         1400     1410     1200     1210     1080     1600     1650     1300     1700     1380   
                                           T        V       H0       H01     AOSYM     SMH    MOLCAS    ERIS     OPER     JKOP   

              2       4        0.47       700     1000      520     2100   
                                         GEOM     BASIS   MCVARS     RHF  

 PROGRAMS   *        TOTAL   CCSD(T)    HF-SCF       INT
 CPU TIMES  *         2.27      1.02      0.12      0.99
 REAL TIME  *         3.55 SEC
 DISK USED  *        66.78 MB
 **********************************************************************************************************************************

 Dump information in style XML to xml output                                                                      

 Orbitals will not be exported.

 **********************************************************************************************************************************

 CCSD(T)/cc-pVTZ energy=   -151.356557191655

         CCSD(T)          HF-SCF
   -151.35655719   -150.83559913
 **********************************************************************************************************************************
 Molpro calculation terminated
