
 Working directory              : /home/jovyan/scratch/molpro.QDKcy9JQZl/
 Global scratch directory       : /home/jovyan/scratch/molpro.QDKcy9JQZl/
 Wavefunction directory         : /home/jovyan/wfu/
 Main file repository           : /home/jovyan/scratch/molpro.QDKcy9JQZl/

 id        : cardiff

 Nodes                nprocs
 jupyter-c-2efrancisan    1
 GA implementation: MPI file
 GA implementation (serial work in mppx): MPI file

 Using customized tuning parameters: mindgm=1; mindgv=20; mindgc=4; mindgr=1; noblas=0; minvec=7
 default implementation of scratch files=df  


 Variables initialized (1031), CPU time= 0.00 sec
 
 
 
 geometry={
 8
  C -0.077016 0.551986 0.027408
  H -0.238295 1.625354 0.118269
  C 1.139606 -0.193208 -0.031496
  H 1.355044 -0.698094 0.908034
  H -0.073907 -1.134900 -0.245811
  H 2.028949 0.223228 -0.494171
  N -1.065094 -0.300004 -0.078808
  H -1.991673 -0.068229 0.289860
 }
 basis=cc-pVTZ
 angstrom
 
 
 hf; ccsd(t)
 
 
 
 {put,xml;noorbitals,nobasis}
 Commands initialized (841), CPU time= 0.01 sec, 704 directives.
 Default parameters read. Elapsed time= 0.08 sec

 Checking input...
 Passed
1


                                         ***  PROGRAM SYSTEM MOLPRO  ***
                                       Copyright, TTI GmbH Stuttgart, 2015
                                    Version 2023.1 linked Mon Jun  5 13:27:10 2023


 **********************************************************************************************************************************
 LABEL *                                                                                                                                                                 
  (16 PROC) 64 bit serial version                                                        DATE: 02-Aug-23          TIME: 15:51:12  
 **********************************************************************************************************************************

 SHA1:             9738a14712571edd23541b6d7c4f3a3d766f8287
 **********************************************************************************************************************************

 Memory per process:       805 MW
 Total memory per node:   1074 MW
 Total GA space:           268 MW

 GA preallocation disabled
 GA check enabled

 Geometry recognized as XYZ


 Variable memory set to 805.3 MW

 SETTING BASIS          =    CC-PVTZ


 Recomputing integrals since basis changed


 Using spherical harmonics

 Library entry C      S cc-pVTZ              selected for orbital group  1
 Library entry C      P cc-pVTZ              selected for orbital group  1
 Library entry C      D cc-pVTZ              selected for orbital group  1
 Library entry C      F cc-pVTZ              selected for orbital group  1
 Library entry H      S cc-pVTZ              selected for orbital group  2
 Library entry H      P cc-pVTZ              selected for orbital group  2
 Library entry H      D cc-pVTZ              selected for orbital group  2
 Library entry N      S cc-pVTZ              selected for orbital group  5
 Library entry N      P cc-pVTZ              selected for orbital group  5
 Library entry N      D cc-pVTZ              selected for orbital group  5
 Library entry N      F cc-pVTZ              selected for orbital group  5


 PROGRAM * SEWARD (Integral evaluation for generally contracted gaussian basis sets)     Author: Roland Lindh, 1990

 Geometry written to block  1 of record 700


 Point group  C1  



 ATOMIC COORDINATES

 NR  ATOM    CHARGE       X              Y              Z

   1  C       6.00   -0.145539147    1.043102365    0.051793614
   2  H       1.00   -0.450312287    3.071473916    0.223496019
   3  C       6.00    2.153543230   -0.365110205   -0.059518814
   4  H       1.00    2.560662047   -1.319206469    1.715935572
   5  H       1.00   -0.139663989   -2.144650179   -0.464515468
   6  H       1.00    3.834157931    0.421839783   -0.933847849
   7  N       7.00   -2.012735957   -0.566925396   -0.148925536
   8  H       1.00   -3.763716500   -0.128934124    0.547756014

 Bond lengths in Bohr (Angstrom)

 1-2  2.058314731  1-3  2.698375970  1-7  2.473641343  3-4  2.056279088  3-6  2.051391556
     ( 1.089213248)     ( 1.427919070)     ( 1.308994627)     ( 1.088136033)     ( 1.085549662)

 5-7  2.469253145  7-8  1.934718171
     ( 1.306672492)     ( 1.023808765)

 Bond angles

  1-3-4  112.03778758   1-3-6  121.02472757   1-7-5   81.58495725   1-7-8  120.43656838

  2-1-3  130.08190268   2-1-7  122.43929315   3-1-7  107.46472191   4-3-6  112.56910787

  5-7-8  151.30523863

 NUCLEAR CHARGE:                   24
 NUMBER OF PRIMITIVE AOS:         226
 NUMBER OF SYMMETRY AOS:          206
 NUMBER OF CONTRACTIONS:          160   (  160A   )
 NUMBER OF INNER CORE ORBITALS:     0   (    0A   )
 NUMBER OF OUTER CORE ORBITALS:     3   (    3A   )
 NUMBER OF VALENCE ORBITALS:       17   (   17A   )


 NUCLEAR REPULSION ENERGY   72.83779533


 Eigenvalues of metric

         1 0.647E-03 0.119E-02 0.136E-02 0.147E-02 0.164E-02 0.207E-02 0.239E-02 0.250E-02


 Contracted 2-electron integrals neglected if value below      1.0D-11
 AO integral compression algorithm  1   Integral accuracy      1.0D-11

     365.429 MB (compressed) written to integral file ( 49.1%)


 NUMBER OF SORTED TWO-ELECTRON INTEGRALS:   82953640.     BUFFER LENGTH:  32768
 NUMBER OF SEGMENTS:   6  SEGMENT LENGTH:   15999503      RECORD LENGTH: 524288

 Memory used in sort:      16.56 MW

 SORT1 READ    93086392. AND WROTE    80153488. INTEGRALS IN    233 RECORDS. CPU TIME:     1.02 SEC, REAL TIME:     1.84 SEC
 SORT2 READ    80153488. AND WROTE    82953640. INTEGRALS IN   1394 RECORDS. CPU TIME:     1.43 SEC, REAL TIME:     4.25 SEC

 FILE SIZES:   FILE 1:   396.5 MBYTE,  FILE 4:   977.3 MBYTE,   TOTAL:   1373.8 MBYTE

 OPERATOR DM      FOR CENTER  0  COORDINATES:    0.000000    0.000000    0.000000


 **********************************************************************************************************************************
 DATASETS  * FILE   NREC   LENGTH (MB)   RECORD NAMES
              1      19      342.86       500      610      700      900      950      970     1000      129      960     1100   
                                          VAR    BASINP    GEOM    SYMINP    ZMAT    AOBASIS   BASIS     P2S    ABASIS      S 
                                         1400     1410     1200     1210     1080     1600     1650     1300     1700   
                                           T        V       H0       H01     AOSYM     SMH    MOLCAS    ERIS     OPER   

 PROGRAMS   *        TOTAL       INT
 CPU TIMES  *         8.09      7.95
 REAL TIME  *        18.15 SEC
 DISK USED  *         1.28 GB
 **********************************************************************************************************************************


 Program * Restricted Hartree-Fock

 Orbital guess generated from atomic densities. Full valence occupancy:   20

 Initial occupancy:  12

 NELEC=   24   SYM=1   MS2= 0   THRE=1.0D-08   THRD=3.2D-06   THRG=3.2D-06  HFMA2=F  DIIS_START=2   DIIS_MAX=10   DIIS_INCORE=F

 Level shifts:    0.00 (CLOSED)    0.00 (OPEN)    0.30 (GAP_MIN)

 ITER           ETOT              DE          GRAD        DDIFF     DIIS  NEXP   TIME(IT)  TIME(TOT)  DIAG
   1     -132.94557132    -132.94557132     0.00D+00     0.57D-01     0     0       0.84      1.68    start
   2     -132.98359236      -0.03802103     0.44D-02     0.67D-02     1     0       0.84      2.52    diag
   3     -132.99091471      -0.00732236     0.20D-02     0.21D-02     2     0       0.86      3.38    diag
   4     -132.99185160      -0.00093689     0.53D-03     0.81D-03     3     0       0.88      4.26    diag
   5     -132.99194472      -0.00009312     0.20D-03     0.23D-03     4     0       0.88      5.14    diag
   6     -132.99196352      -0.00001880     0.61D-04     0.12D-03     5     0       0.80      5.94    diag
   7     -132.99196546      -0.00000194     0.21D-04     0.39D-04     6     0       0.87      6.81    diag
   8     -132.99196571      -0.00000026     0.57D-05     0.13D-04     7     0       0.86      7.67    fixocc
   9     -132.99196576      -0.00000004     0.24D-05     0.49D-05     8     0       0.85      8.52    diag
  10     -132.99196577      -0.00000001     0.99D-06     0.24D-05     9     0       0.86      9.38    diag/orth
  11     -132.99196577      -0.00000000     0.38D-06     0.62D-06     0     0       0.86     10.24    diag

 Final occupancy:  12

 !RHF STATE 1.1 Energy               -132.991965768422
  RHF One-electron energy            -323.220018707154
  RHF Two-electron energy             117.390257611675
  RHF Kinetic energy                  132.790631444117
  RHF Nuclear energy                   72.837795327056
  RHF Virial quotient                  -1.001516178680

 !RHF STATE 1.1 Dipole moment          -0.56093594     0.62880788     0.39164207
 Dipole moment /Debye                  -1.42575695     1.59827021     0.99545485

 Orbital energies:

           1.1          2.1          3.1          4.1          5.1          6.1          7.1          8.1          9.1         10.1
    -15.578333   -11.308352   -11.185572    -1.243203    -0.963095    -0.790209    -0.737321    -0.579560    -0.566898    -0.513949

          11.1         12.1         13.1         14.1
     -0.437888    -0.315387     0.123948     0.142061


 HOMO     12.1    -0.315387 =      -8.5821eV
 LUMO     13.1     0.123948 =       3.3728eV
 LUMO-HOMO         0.439334 =      11.9549eV

 Orbitals saved in record  2100.2


 **********************************************************************************************************************************
 DATASETS  * FILE   NREC   LENGTH (MB)   RECORD NAMES
              1      19      342.86       500      610      700      900      950      970     1000      129      960     1100   
                                          VAR    BASINP    GEOM    SYMINP    ZMAT    AOBASIS   BASIS     P2S    ABASIS      S 
                                         1400     1410     1200     1210     1080     1600     1650     1300     1700   
                                           T        V       H0       H01     AOSYM     SMH    MOLCAS    ERIS     OPER   

              2       4        0.91       700     1000      520     2100   
                                         GEOM     BASIS   MCVARS     RHF  

 PROGRAMS   *        TOTAL    HF-SCF       INT
 CPU TIMES  *        18.33     10.24      7.95
 REAL TIME  *        30.75 SEC
 DISK USED  *         1.28 GB
 **********************************************************************************************************************************


 PROGRAM * CCSD (Closed-shell coupled cluster)     Authors: C. Hampel, H.-J. Werner, 1991, M. Deegan, P.J. Knowles, 1992


 Convergence thresholds:  THRVAR = 1.00D-08  THRDEN = 1.00D-06

 CCSD(T)     terms to be evaluated (factor= 1.000)


 Number of core orbitals:           3 (   3 )
 Number of closed-shell orbitals:   9 (   9 )
 Number of external orbitals:     148 ( 148 )

 Molecular orbitals read from record     2100.2  Type=RHF/CANONICAL  

 Number of N-1 electron functions:               9
 Number of N-2 electron functions:              45
 Number of singly external CSFs:              1332
 Number of doubly external CSFs:            887778
 Total number of CSFs:                      889111

 Length of J-op  integral file:               0.00 MB
 Length of K-op  integral file:               1.82 MB
 Length of 3-ext integral record:             0.00 MB

 Memory could be reduced to 39.82 Mwords without degradation in triples

 Integral transformation finished. Total CPU:   3.71 sec, npass=  1  Memory used:  23.10 MW

 Reference energy:                   -132.99196577

 MP2 singlet pair energy:              -0.36562911
 MP2 triplet pair energy:              -0.20640774
 MP2 correlation energy:               -0.57203685
 MP2 total energy:                   -133.56400262

 SCS-MP2 correlation energy:           -0.56718642   (PS=  1.200000  PT=  0.333333)
 SCS-MP2 total energy:               -133.55915219

 ITER.      SQ.NORM     CORR.ENERGY   TOTAL ENERGY   ENERGY CHANGE        DEN1      VAR(S)    VAR(P)  DIIS     TIME  TIME/IT
   1      1.19176065    -0.58827036  -133.58023613    -0.01623350     0.00031191  0.37D-02  0.35D-02  1  1    27.17     5.50
   2      1.20650198    -0.59008871  -133.58205447    -0.00181835    -0.01407666  0.13D-03  0.55D-03  2  2    32.11     5.53
   3      1.21397037    -0.59041340  -133.58237917    -0.00032470    -0.00335614  0.99D-04  0.41D-04  3  3    36.98     5.44
   4      1.21747383    -0.59046258  -133.58242835    -0.00004918    -0.00097207  0.16D-04  0.71D-05  4  4    41.96     5.44
   5      1.21905047    -0.59047709  -133.58244286    -0.00001451    -0.00025906  0.36D-05  0.88D-06  5  5    46.88     5.82
   6      1.21963249    -0.59045496  -133.58242073     0.00002213    -0.00005857  0.64D-06  0.14D-06  6  6    51.82     5.75
   7      1.21976805    -0.59045349  -133.58241925     0.00000148    -0.00000756  0.18D-06  0.39D-07  6  1    56.77     5.71
   8      1.21981362    -0.59045396  -133.58241973    -0.00000047     0.00000233  0.55D-07  0.97D-08  6  2    61.69     5.65
   9      1.21984291    -0.59045364  -133.58241941     0.00000032    -0.00000308  0.17D-07  0.29D-08  6  3    66.60     5.60
  10      1.21984595    -0.59045415  -133.58241992    -0.00000051     0.00000080  0.46D-08  0.10D-08  6  4    71.49     5.55

 Norm of t1 vector:      0.10024646      S-energy:     0.00000012      T1 diagnostic:  0.01670774
                                                                       D1 diagnostic:  0.05967708
                                                                       D2 diagnostic:  0.17335004 (internal)

 Doubles amplitudes (print threshold =  0.500E-01):

         I         J         SYM. A    SYM. B    A         B      T(IJ, AB)

         8         8         1         1         1         1     -0.06731172


 Total CPU time for triples:     71.98 sec


 RESULTS
 =======

  Reference energy                   -132.991965768422
  CCSD singlet pair energy             -0.405751934646
  CCSD triplet pair energy             -0.184702342185
  CCSD correlation energy              -0.590454154408

  Triples (T) contribution             -0.029141198955
  Total correlation energy             -0.619595353362

  CCSD total energy                  -133.582419922830
  CCSD[T] energy                     -133.612659538816
  CCSD-T energy                      -133.611185336427
 !CCSD(T) total energy               -133.611561121785

 Timing summary (sec):

 STEP                 CPU(USER)    SYS     CPU(TOT)    WALL
 Transformation          3.78      0.38      4.16      6.18
 CCSD iterations        67.77      2.19     69.96     55.61
 Triples                71.98      1.59     73.57     74.37

 Program statistics:

 Available memory in ccsd:               805306032
 Min. memory needed in ccsd:               2562521
 Max. memory used in ccsd:                 3319133
 Max. memory used in cckext:               2527058 (10 integral passes)



 **********************************************************************************************************************************
 DATASETS  * FILE   NREC   LENGTH (MB)   RECORD NAMES
              1      20      468.52       500      610      700      900      950      970     1000      129      960     1100   
                                          VAR    BASINP    GEOM    SYMINP    ZMAT    AOBASIS   BASIS     P2S    ABASIS      S 
                                         1400     1410     1200     1210     1080     1600     1650     1300     1700     1380   
                                           T        V       H0       H01     AOSYM     SMH    MOLCAS    ERIS     OPER     JKOP   

              2       4        0.91       700     1000      520     2100   
                                         GEOM     BASIS   MCVARS     RHF  

 PROGRAMS   *        TOTAL   CCSD(T)    HF-SCF       INT
 CPU TIMES  *       143.29    124.95     10.24      7.95
 REAL TIME  *       167.04 SEC
 DISK USED  *         1.28 GB
 **********************************************************************************************************************************

 Dump information in style XML to xml output                                                                      

 Orbitals will not be exported.

 **********************************************************************************************************************************

 CCSD(T)/cc-pVTZ energy=   -133.611561121785

         CCSD(T)          HF-SCF
   -133.61156112   -132.99196577
 **********************************************************************************************************************************
 Molpro calculation terminated
