
 Working directory              : /home/jovyan/scratch/molpro.fcNXGMPP7F/
 Global scratch directory       : /home/jovyan/scratch/molpro.fcNXGMPP7F/
 Wavefunction directory         : /home/jovyan/wfu/
 Main file repository           : /home/jovyan/scratch/molpro.fcNXGMPP7F/

 id        : cardiff

 Nodes                nprocs
 jupyter-c-2efrancisan    1
 GA implementation: MPI file
 GA implementation (serial work in mppx): MPI file

 Using customized tuning parameters: mindgm=1; mindgv=20; mindgc=4; mindgr=1; noblas=0; minvec=7
 default implementation of scratch files=df  


 Variables initialized (1031), CPU time= 0.01 sec
 
 
 
 geometry={
           10
     C          0.93577667      0.39537143      0.00000000
     C          0.85196601     -0.96841085      0.00000000
     O         -1.50506259     -1.24340628      0.00000000
     N         -1.72883338     -0.04590722      0.00000000
     C         -1.16713640      1.02284528      0.00000000
     H          1.15273844      0.92694986      0.92000024
     H          1.15273844      0.92694986     -0.92000024
     H          0.87762775     -1.53660420      0.92009471
     H          0.87762775     -1.53660420     -0.92009471
     H         -1.44744268      2.05881632      0.00000000
 }
 basis=cc-pVDZ
 angstrom
 
 
 hf; ccsd
 
 
 
 {put,xml;noorbitals,nobasis}
 Commands initialized (841), CPU time= 0.01 sec, 704 directives.
 Default parameters read. Elapsed time= 0.08 sec

 Checking input...
 Passed
1


                                         ***  PROGRAM SYSTEM MOLPRO  ***
                                       Copyright, TTI GmbH Stuttgart, 2015
                                    Version 2023.1 linked Mon Jun  5 13:27:10 2023


 **********************************************************************************************************************************
 LABEL *                                                                                                                                                                 
  (16 PROC) 64 bit serial version                                                        DATE: 03-Aug-23          TIME: 11:31:07  
 **********************************************************************************************************************************

 SHA1:             9738a14712571edd23541b6d7c4f3a3d766f8287
 **********************************************************************************************************************************

 Memory per process:       805 MW
 Total memory per node:   1074 MW
 Total GA space:           268 MW

 GA preallocation disabled
 GA check enabled

 Geometry recognized as XYZ


 Variable memory set to 805.3 MW

 SETTING BASIS          =    CC-PVDZ


 Recomputing integrals since basis changed


 Using spherical harmonics

 Library entry C      S cc-pVDZ              selected for orbital group  1
 Library entry C      P cc-pVDZ              selected for orbital group  1
 Library entry C      D cc-pVDZ              selected for orbital group  1
 Library entry O      S cc-pVDZ              selected for orbital group  2
 Library entry O      P cc-pVDZ              selected for orbital group  2
 Library entry O      D cc-pVDZ              selected for orbital group  2
 Library entry N      S cc-pVDZ              selected for orbital group  3
 Library entry N      P cc-pVDZ              selected for orbital group  3
 Library entry N      D cc-pVDZ              selected for orbital group  3
 Library entry H      S cc-pVDZ              selected for orbital group  5
 Library entry H      P cc-pVDZ              selected for orbital group  5


 PROGRAM * SEWARD (Integral evaluation for generally contracted gaussian basis sets)     Author: Roland Lindh, 1990

 Geometry written to block  1 of record 700


 Point group  Cs  



 ATOMIC COORDINATES

 NR  ATOM    CHARGE       X              Y              Z

   1  C       6.00    1.768361620    0.747143720    0.000000000
   2  C       6.00    1.609982426   -1.830031283    0.000000000
   3  O       8.00   -2.844156096   -2.349697331    0.000000000
   4  N       7.00   -3.267021603   -0.086752073    0.000000000
   5  C       6.00   -2.205568146    1.932897447    0.000000000
   6  H       1.00    2.178359945    1.751681367    1.738548488
   7  H       1.00    2.178359945    1.751681367   -1.738548488
   8  H       1.00    1.658476087   -2.903761100    1.738727011
   9  H       1.00    1.658476087   -2.903761100   -1.738727011
  10  H       1.00   -2.735270246    3.890598986    0.000000000

 Bond lengths in Bohr (Angstrom)

 1-2  2.582036980  1-6  2.049328025  1-7  2.049328025  2-8  2.044118141  2-9  2.044118141
     ( 1.366355127)     ( 1.084457689)     ( 1.084457689)     ( 1.081700736)     ( 1.081700736)

  3- 4  2.302115653   4- 5  2.281593221   5-10  2.028097539
       ( 1.218227140)       ( 1.207367137)       ( 1.073222999)

 Bond angles

  1-2-8  121.52250959   1-2-9  121.52250959   2-1-6  120.10112852   2-1-7  120.10112852

  3- 4- 5  141.69072663   4- 5-10  137.13504101   6- 1- 7  116.06542625   8- 2- 9  116.55399035

 NUCLEAR CHARGE:                   38
 NUMBER OF PRIMITIVE AOS:         170
 NUMBER OF SYMMETRY AOS:          165
 NUMBER OF CONTRACTIONS:           95   (   64A'  +   31A"  )
 NUMBER OF INNER CORE ORBITALS:     0   (    0A'  +    0A"  )
 NUMBER OF OUTER CORE ORBITALS:     5   (    5A'  +    0A"  )
 NUMBER OF VALENCE ORBITALS:       25   (   18A'  +    7A"  )


 NUCLEAR REPULSION ENERGY  161.14848520

 Eigenvalues of metric

         1 0.291E-02 0.507E-02 0.851E-02 0.129E-01 0.179E-01 0.271E-01 0.314E-01 0.325E-01
         2 0.162E-01 0.274E-01 0.393E-01 0.622E-01 0.941E-01 0.110E+00 0.142E+00 0.168E+00


 Contracted 2-electron integrals neglected if value below      1.0D-11
 AO integral compression algorithm  1   Integral accuracy      1.0D-11

     25.428 MB (compressed) written to integral file ( 51.9%)


 NUMBER OF SORTED TWO-ELECTRON INTEGRALS:    5382536.     BUFFER LENGTH:  32768
 NUMBER OF SEGMENTS:   1  SEGMENT LENGTH:    5382536      RECORD LENGTH: 524288

 Memory used in sort:       5.94 MW

 SORT1 READ     6063918. AND WROTE     5304972. INTEGRALS IN     16 RECORDS. CPU TIME:     0.09 SEC, REAL TIME:     0.12 SEC
 SORT2 READ     5304972. AND WROTE     5382536. INTEGRALS IN     97 RECORDS. CPU TIME:     0.15 SEC, REAL TIME:     0.18 SEC

 FILE SIZES:   FILE 1:    55.8 MBYTE,  FILE 4:    67.2 MBYTE,   TOTAL:    123.0 MBYTE

 OPERATOR DM      FOR CENTER  0  COORDINATES:    0.000000    0.000000    0.000000


 **********************************************************************************************************************************
 DATASETS  * FILE   NREC   LENGTH (MB)   RECORD NAMES
              1      19       50.23       500      610      700      900      950      970     1000      129      960     1100   
                                          VAR    BASINP    GEOM    SYMINP    ZMAT    AOBASIS   BASIS     P2S    ABASIS      S 
                                         1400     1410     1200     1210     1080     1600     1650     1300     1700   
                                           T        V       H0       H01     AOSYM     SMH    MOLCAS    ERIS     OPER   

 PROGRAMS   *        TOTAL       INT
 CPU TIMES  *         2.03      1.90
 REAL TIME  *         3.12 SEC
 DISK USED  *       117.80 MB
 **********************************************************************************************************************************


 Program * Restricted Hartree-Fock

 Orbital guess generated from atomic densities. Full valence occupancy:   23   7

 Initial occupancy:  15   4

 NELEC=   38   SYM=1   MS2= 0   THRE=1.0D-08   THRD=3.2D-06   THRG=3.2D-06  HFMA2=F  DIIS_START=2   DIIS_MAX=10   DIIS_INCORE=F

 Level shifts:    0.00 (CLOSED)    0.00 (OPEN)    0.30 (GAP_MIN)

 ITER           ETOT              DE          GRAD        DDIFF     DIIS  NEXP   TIME(IT)  TIME(TOT)  DIAG
   1     -245.54510296    -245.54510296     0.00D+00     0.15D+00     0     0       0.04      0.09    start
   2     -245.59501572      -0.04991276     0.96D-02     0.21D-01     1     0       0.04      0.13    diag
   3     -245.62887304      -0.03385732     0.70D-02     0.93D-02     2     0       0.05      0.18    diag
   4     -245.63062082      -0.00174778     0.12D-02     0.25D-02     3     0       0.03      0.21    diag
   5     -245.63087103      -0.00025020     0.37D-03     0.89D-03     4     0       0.05      0.26    diag
   6     -245.63095768      -0.00008665     0.25D-03     0.44D-03     5     0       0.04      0.30    diag
   7     -245.63100033      -0.00004265     0.11D-03     0.34D-03     6     0       0.05      0.35    diag
   8     -245.63102830      -0.00002797     0.70D-04     0.32D-03     7     0       0.05      0.40    fixocc
   9     -245.63104111      -0.00001281     0.37D-04     0.29D-03     8     0       0.04      0.44    diag
  10     -245.63104316      -0.00000205     0.17D-04     0.11D-03     9     0       0.05      0.49    diag/orth
  11     -245.63104351      -0.00000035     0.67D-05     0.59D-04     9     0       0.04      0.53    diag
  12     -245.63104352      -0.00000001     0.21D-05     0.90D-05     9     0       0.05      0.58    diag
  13     -245.63104353      -0.00000000     0.60D-06     0.18D-05     9     0       0.04      0.62    diag
  14     -245.63104353      -0.00000000     0.32D-06     0.74D-06     0     0       0.04      0.66    diag

 Final occupancy:  15   4

 !RHF STATE 1.1 Energy               -245.631043525753
  RHF One-electron energy            -653.035587022846
  RHF Two-electron energy             246.256058300866
  RHF Kinetic energy                  245.294610598401
  RHF Nuclear energy                  161.148485196228
  RHF Virial quotient                  -1.001371546348

 !RHF STATE 1.1 Dipole moment           0.42694293     1.17391432     0.00000000
 Dipole moment /Debye                   1.08518069     2.98379258     0.00000000

 Orbital energies:

           1.1          2.1          3.1          4.1          5.1          6.1          7.1          8.1          9.1         10.1
    -20.580756   -15.707032   -11.317957   -11.258249   -11.240995    -1.485851    -1.173457    -1.036998    -0.809410    -0.788273

          11.1         12.1         13.1         14.1         15.1         16.1         17.1
     -0.704034    -0.647424    -0.586016    -0.406767    -0.341270     0.085353     0.187538

           1.2          2.2          3.2          4.2          5.2          6.2
     -0.655044    -0.625904    -0.514698    -0.381618     0.175755     0.236272


 HOMO     15.1    -0.341270 =      -9.2864eV
 LUMO     16.1     0.085353 =       2.3226eV
 LUMO-HOMO         0.426623 =      11.6090eV

 Orbitals saved in record  2100.2


 **********************************************************************************************************************************
 DATASETS  * FILE   NREC   LENGTH (MB)   RECORD NAMES
              1      19       50.23       500      610      700      900      950      970     1000      129      960     1100   
                                          VAR    BASINP    GEOM    SYMINP    ZMAT    AOBASIS   BASIS     P2S    ABASIS      S 
                                         1400     1410     1200     1210     1080     1600     1650     1300     1700   
                                           T        V       H0       H01     AOSYM     SMH    MOLCAS    ERIS     OPER   

              2       4        0.62       700     1000      520     2100   
                                         GEOM     BASIS   MCVARS     RHF  

 PROGRAMS   *        TOTAL    HF-SCF       INT
 CPU TIMES  *         2.69      0.66      1.90
 REAL TIME  *         3.85 SEC
 DISK USED  *       117.80 MB
 **********************************************************************************************************************************


 PROGRAM * CCSD (Closed-shell coupled cluster)     Authors: C. Hampel, H.-J. Werner, 1991, M. Deegan, P.J. Knowles, 1992


 Convergence thresholds:  THRVAR = 1.00D-08  THRDEN = 1.00D-06

 Number of core orbitals:           5 (   5   0 )
 Number of closed-shell orbitals:  14 (  10   4 )
 Number of external orbitals:      76 (  49  27 )

 Molecular orbitals read from record     2100.2  Type=RHF/CANONICAL  

 Number of N-1 electron functions:              14
 Number of N-2 electron functions:             105
 Number of singly external CSFs:               598
 Number of doubly external CSFs:            287912
 Total number of CSFs:                      288511

 Length of J-op  integral file:               0.00 MB
 Length of K-op  integral file:               0.41 MB
 Length of 3-ext integral record:             0.00 MB

 Integral transformation finished. Total CPU:   0.29 sec, npass=  1  Memory used:   2.31 MW

 Reference energy:                   -245.63104353

 MP2 singlet pair energy:              -0.48811054
 MP2 triplet pair energy:              -0.32097199
 MP2 correlation energy:               -0.80908253
 MP2 total energy:                   -246.44012605

 SCS-MP2 correlation energy:           -0.78544855   (PS=  1.200000  PT=  0.333333)
 SCS-MP2 total energy:               -246.41649207

 ITER.      SQ.NORM     CORR.ENERGY   TOTAL ENERGY   ENERGY CHANGE        DEN1      VAR(S)    VAR(P)  DIIS     TIME  TIME/IT
   1      1.29076045    -0.82238344  -246.45342697    -0.01330092     0.02514347  0.14D-01  0.12D-01  1  1     3.99     0.85
   2      1.31855981    -0.82151596  -246.45255948     0.00086749    -0.02816299  0.50D-03  0.17D-02  2  2     4.76     0.87
   3      1.33740085    -0.82331102  -246.45435454    -0.00179506    -0.00684417  0.63D-03  0.19D-03  3  3     5.54     0.87
   4      1.34637167    -0.82298590  -246.45402943     0.00032512    -0.00246852  0.92D-04  0.45D-04  4  4     6.31     0.86
   5      1.35366987    -0.82304331  -246.45408684    -0.00005741    -0.00130586  0.14D-04  0.44D-05  5  5     7.08     0.85
   6      1.35561173    -0.82296554  -246.45400907     0.00007777    -0.00018398  0.24D-05  0.84D-06  6  6     7.84     0.84
   7      1.35620755    -0.82294926  -246.45399278     0.00001628    -0.00003933  0.82D-06  0.17D-06  6  4     8.61     0.84
   8      1.35642202    -0.82294472  -246.45398824     0.00000454     0.00000373  0.12D-06  0.50D-07  6  2     9.36     0.83
   9      1.35650065    -0.82294611  -246.45398964    -0.00000140    -0.00000334  0.23D-07  0.96D-08  6  1    10.13     0.83
  10      1.35653861    -0.82294375  -246.45398728     0.00000236    -0.00000835  0.59D-08  0.21D-08  6  3    10.90     0.83
  11      1.35652337    -0.82294618  -246.45398970    -0.00000243     0.00000596  0.79D-09  0.56D-09  6  6    11.67     0.83
  12      1.35652639    -0.82294603  -246.45398955     0.00000015    -0.00000058  0.10D-09  0.54D-10  6  5    12.44     0.83
  13      1.35652526    -0.82294625  -246.45398977    -0.00000022     0.00000049  0.18D-10  0.13D-10  6  4    13.20     0.83

 Norm of t1 vector:      0.17787098      S-energy:     0.00000001      T1 diagnostic:  0.02376901
                                                                       D1 diagnostic:  0.10107756
                                                                       D2 diagnostic:  0.21777966 (external, symmetry=1)

 Singles amplitudes (print threshold =  0.500E-01):

         I         SYM. A    A   T(IA)

         9         1         1     -0.05728068
        10         1         1      0.07532425

 Doubles amplitudes (print threshold =  0.500E-01):

         I         J         SYM. A    SYM. B    A         B      T(IJ, AB)

         9         9         1         1         1         1     -0.07260231
        10        10         1         1         1         1     -0.09401216
        14        14         2         2         1         1     -0.08230698


 RESULTS
 =======

  Reference energy                   -245.631043525753
  CCSD singlet pair energy             -0.550886658068
  CCSD triplet pair energy             -0.272059601060
  CCSD correlation energy              -0.822946247453

 !CCSD total energy                  -246.453989773205

 Timing summary (sec):

 STEP                 CPU(USER)    SYS     CPU(TOT)    WALL
 Transformation          0.31      0.05      0.36      0.48
 CCSD iterations        12.92      0.56     13.48     10.78

 Program statistics:

 Available memory in ccsd:               805305569
 Min. memory needed in ccsd:                809627
 Max. memory used in ccsd:                 1053073
 Max. memory used in cckext:               1169992 (13 integral passes)



 **********************************************************************************************************************************
 DATASETS  * FILE   NREC   LENGTH (MB)   RECORD NAMES
              1      20       67.93       500      610      700      900      950      970     1000      129      960     1100   
                                          VAR    BASINP    GEOM    SYMINP    ZMAT    AOBASIS   BASIS     P2S    ABASIS      S 
                                         1400     1410     1200     1210     1080     1600     1650     1300     1700     1380   
                                           T        V       H0       H01     AOSYM     SMH    MOLCAS    ERIS     OPER     JKOP   

              2       4        0.62       700     1000      520     2100   
                                         GEOM     BASIS   MCVARS     RHF  

 PROGRAMS   *        TOTAL      CCSD    HF-SCF       INT
 CPU TIMES  *        13.04     10.34      0.66      1.90
 REAL TIME  *        15.17 SEC
 DISK USED  *       117.80 MB
 **********************************************************************************************************************************

 Dump information in style XML to xml output                                                                      

 Orbitals will not be exported.

 **********************************************************************************************************************************

 CCSD/cc-pVDZ energy=   -246.453989773205

            CCSD          HF-SCF
   -246.45398977   -245.63104353
 **********************************************************************************************************************************
 Molpro calculation terminated
