
 Working directory              : /home/jovyan/scratch/molpro.HWqffpZeam/
 Global scratch directory       : /home/jovyan/scratch/molpro.HWqffpZeam/
 Wavefunction directory         : /home/jovyan/wfu/
 Main file repository           : /home/jovyan/scratch/molpro.HWqffpZeam/

 id        : cardiff

 Nodes                nprocs
 jupyter-c-2efrancisan    1
 GA implementation: MPI file
 GA implementation (serial work in mppx): MPI file

 Using customized tuning parameters: mindgm=1; mindgv=20; mindgc=4; mindgr=1; noblas=0; minvec=7
 default implementation of scratch files=df  


 Variables initialized (1031), CPU time= 0.00 sec
 
 
 
 geometry={
 8
  C -0.077016 0.551986 0.027408
  H -0.238295 1.625354 0.118269
  C 1.139606 -0.193208 -0.031496
  H 1.355044 -0.698094 0.908034
  H -0.073907 -1.134900 -0.245811
  H 2.028949 0.223228 -0.494171
  N -1.065094 -0.300004 -0.078808
  H -1.991673 -0.068229 0.289860
 }
 basis=cc-pVTZ
 angstrom
 
 
 hf; papt;mp2
 
 
 
 {put,xml;noorbitals,nobasis}
 Commands initialized (841), CPU time= 0.01 sec, 704 directives.
 Default parameters read. Elapsed time= 0.09 sec

 Checking input...
 Passed
1


                                         ***  PROGRAM SYSTEM MOLPRO  ***
                                       Copyright, TTI GmbH Stuttgart, 2015
                                    Version 2023.1 linked Mon Jun  5 13:27:10 2023


 **********************************************************************************************************************************
 LABEL *                                                                                                                                                                 
  (16 PROC) 64 bit serial version                                                        DATE: 02-Aug-23          TIME: 15:42:05  
 **********************************************************************************************************************************

 SHA1:             9738a14712571edd23541b6d7c4f3a3d766f8287
 **********************************************************************************************************************************

 Memory per process:       805 MW
 Total memory per node:   1074 MW
 Total GA space:           268 MW

 GA preallocation disabled
 GA check enabled

 Geometry recognized as XYZ


 Variable memory set to 805.3 MW

 SETTING BASIS          =    CC-PVTZ


 Recomputing integrals since basis changed


 Using spherical harmonics

 Library entry C      S cc-pVTZ              selected for orbital group  1
 Library entry C      P cc-pVTZ              selected for orbital group  1
 Library entry C      D cc-pVTZ              selected for orbital group  1
 Library entry C      F cc-pVTZ              selected for orbital group  1
 Library entry H      S cc-pVTZ              selected for orbital group  2
 Library entry H      P cc-pVTZ              selected for orbital group  2
 Library entry H      D cc-pVTZ              selected for orbital group  2
 Library entry N      S cc-pVTZ              selected for orbital group  5
 Library entry N      P cc-pVTZ              selected for orbital group  5
 Library entry N      D cc-pVTZ              selected for orbital group  5
 Library entry N      F cc-pVTZ              selected for orbital group  5


 PROGRAM * SEWARD (Integral evaluation for generally contracted gaussian basis sets)     Author: Roland Lindh, 1990

 Geometry written to block  1 of record 700


 Point group  C1  



 ATOMIC COORDINATES

 NR  ATOM    CHARGE       X              Y              Z

   1  C       6.00   -0.145539147    1.043102365    0.051793614
   2  H       1.00   -0.450312287    3.071473916    0.223496019
   3  C       6.00    2.153543230   -0.365110205   -0.059518814
   4  H       1.00    2.560662047   -1.319206469    1.715935572
   5  H       1.00   -0.139663989   -2.144650179   -0.464515468
   6  H       1.00    3.834157931    0.421839783   -0.933847849
   7  N       7.00   -2.012735957   -0.566925396   -0.148925536
   8  H       1.00   -3.763716500   -0.128934124    0.547756014

 Bond lengths in Bohr (Angstrom)

 1-2  2.058314731  1-3  2.698375970  1-7  2.473641343  3-4  2.056279088  3-6  2.051391556
     ( 1.089213248)     ( 1.427919070)     ( 1.308994627)     ( 1.088136033)     ( 1.085549662)

 5-7  2.469253145  7-8  1.934718171
     ( 1.306672492)     ( 1.023808765)

 Bond angles

  1-3-4  112.03778758   1-3-6  121.02472757   1-7-5   81.58495725   1-7-8  120.43656838

  2-1-3  130.08190268   2-1-7  122.43929315   3-1-7  107.46472191   4-3-6  112.56910787

  5-7-8  151.30523863

 NUCLEAR CHARGE:                   24
 NUMBER OF PRIMITIVE AOS:         226
 NUMBER OF SYMMETRY AOS:          206
 NUMBER OF CONTRACTIONS:          160   (  160A   )
 NUMBER OF INNER CORE ORBITALS:     0   (    0A   )
 NUMBER OF OUTER CORE ORBITALS:     3   (    3A   )
 NUMBER OF VALENCE ORBITALS:       17   (   17A   )


 NUCLEAR REPULSION ENERGY   72.83779533


 Eigenvalues of metric

         1 0.647E-03 0.119E-02 0.136E-02 0.147E-02 0.164E-02 0.207E-02 0.239E-02 0.250E-02


 Contracted 2-electron integrals neglected if value below      1.0D-11
 AO integral compression algorithm  1   Integral accuracy      1.0D-11

     365.429 MB (compressed) written to integral file ( 49.1%)


 NUMBER OF SORTED TWO-ELECTRON INTEGRALS:   82953640.     BUFFER LENGTH:  32768
 NUMBER OF SEGMENTS:   6  SEGMENT LENGTH:   15999503      RECORD LENGTH: 524288

 Memory used in sort:      16.56 MW

 SORT1 READ    93086392. AND WROTE    80153488. INTEGRALS IN    233 RECORDS. CPU TIME:     1.12 SEC, REAL TIME:     4.43 SEC
 SORT2 READ    80153488. AND WROTE    82953640. INTEGRALS IN   1394 RECORDS. CPU TIME:     1.45 SEC, REAL TIME:     2.02 SEC

 FILE SIZES:   FILE 1:   396.5 MBYTE,  FILE 4:   977.3 MBYTE,   TOTAL:   1373.8 MBYTE

 OPERATOR DM      FOR CENTER  0  COORDINATES:    0.000000    0.000000    0.000000


 **********************************************************************************************************************************
 DATASETS  * FILE   NREC   LENGTH (MB)   RECORD NAMES
              1      19      342.86       500      610      700      900      950      970     1000      129      960     1100   
                                          VAR    BASINP    GEOM    SYMINP    ZMAT    AOBASIS   BASIS     P2S    ABASIS      S 
                                         1400     1410     1200     1210     1080     1600     1650     1300     1700   
                                           T        V       H0       H01     AOSYM     SMH    MOLCAS    ERIS     OPER   

 PROGRAMS   *        TOTAL       INT
 CPU TIMES  *         8.44      8.30
 REAL TIME  *        14.96 SEC
 DISK USED  *         1.28 GB
 **********************************************************************************************************************************


 Program * Restricted Hartree-Fock

 Orbital guess generated from atomic densities. Full valence occupancy:   20

 Initial occupancy:  12

 NELEC=   24   SYM=1   MS2= 0   THRE=1.0D-08   THRD=3.2D-06   THRG=3.2D-06  HFMA2=F  DIIS_START=2   DIIS_MAX=10   DIIS_INCORE=F

 Level shifts:    0.00 (CLOSED)    0.00 (OPEN)    0.30 (GAP_MIN)

 ITER           ETOT              DE          GRAD        DDIFF     DIIS  NEXP   TIME(IT)  TIME(TOT)  DIAG
   1     -132.94557132    -132.94557132     0.00D+00     0.57D-01     0     0       0.90      1.82    start
   2     -132.98359236      -0.03802103     0.44D-02     0.67D-02     1     0       0.90      2.72    diag
   3     -132.99091471      -0.00732236     0.20D-02     0.21D-02     2     0       0.89      3.61    diag
   4     -132.99185160      -0.00093689     0.53D-03     0.81D-03     3     0       0.90      4.51    diag
   5     -132.99194472      -0.00009312     0.20D-03     0.23D-03     4     0       0.89      5.40    diag
   6     -132.99196352      -0.00001880     0.61D-04     0.12D-03     5     0       0.90      6.30    diag
   7     -132.99196546      -0.00000194     0.21D-04     0.39D-04     6     0       0.88      7.18    diag
   8     -132.99196571      -0.00000026     0.57D-05     0.13D-04     7     0       0.89      8.07    fixocc
   9     -132.99196576      -0.00000004     0.24D-05     0.49D-05     8     0       0.89      8.96    diag
  10     -132.99196577      -0.00000001     0.99D-06     0.24D-05     9     0       0.89      9.85    diag/orth
  11     -132.99196577      -0.00000000     0.38D-06     0.62D-06     0     0       0.90     10.75    diag

 Final occupancy:  12

 !RHF STATE 1.1 Energy               -132.991965768422
  RHF One-electron energy            -323.220018707154
  RHF Two-electron energy             117.390257611675
  RHF Kinetic energy                  132.790631444117
  RHF Nuclear energy                   72.837795327056
  RHF Virial quotient                  -1.001516178680

 !RHF STATE 1.1 Dipole moment          -0.56093594     0.62880788     0.39164207
 Dipole moment /Debye                  -1.42575695     1.59827021     0.99545485

 Orbital energies:

           1.1          2.1          3.1          4.1          5.1          6.1          7.1          8.1          9.1         10.1
    -15.578333   -11.308352   -11.185572    -1.243203    -0.963095    -0.790209    -0.737321    -0.579560    -0.566898    -0.513949

          11.1         12.1         13.1         14.1
     -0.437888    -0.315387     0.123948     0.142061


 HOMO     12.1    -0.315387 =      -8.5821eV
 LUMO     13.1     0.123948 =       3.3728eV
 LUMO-HOMO         0.439334 =      11.9549eV

 Orbitals saved in record  2100.2


 **********************************************************************************************************************************
 DATASETS  * FILE   NREC   LENGTH (MB)   RECORD NAMES
              1      19      342.86       500      610      700      900      950      970     1000      129      960     1100   
                                          VAR    BASINP    GEOM    SYMINP    ZMAT    AOBASIS   BASIS     P2S    ABASIS      S 
                                         1400     1410     1200     1210     1080     1600     1650     1300     1700   
                                           T        V       H0       H01     AOSYM     SMH    MOLCAS    ERIS     OPER   

              2       4        0.91       700     1000      520     2100   
                                         GEOM     BASIS   MCVARS     RHF  

 PROGRAMS   *        TOTAL    HF-SCF       INT
 CPU TIMES  *        19.19     10.76      8.30
 REAL TIME  *        28.14 SEC
 DISK USED  *         1.28 GB
 **********************************************************************************************************************************


 PROGRAM * PAPT (Closed-shell)     Authors: C. Hampel, H.-J. Werner, 1991, P.J. Knowles, 2021


 Convergence thresholds:  THRVAR = 1.00D-08  THRDEN = 1.00D-06

 Number of core orbitals:           3 (   3 )
 Number of closed-shell orbitals:   9 (   9 )
 Number of external orbitals:     148 ( 148 )

 Molecular orbitals read from record     2100.2  Type=RHF/CANONICAL  

 Number of N-1 electron functions:               9
 Number of N-2 electron functions:              45
 Number of singly external CSFs:              1332
 Number of doubly external CSFs:            887778
 Total number of CSFs:                      889111

 Length of J-op  integral file:               0.00 MB
 Length of K-op  integral file:               1.82 MB

 Integral transformation finished. Total CPU:   1.66 sec, npass=  1  Memory used:   2.49 MW

 Reference energy:                   -132.99196577

                        CORR.ENERGY   TOTAL ENERGY   ENERGY CHANGE
 MP2:                   -0.57203685  -133.56400262    -0.57203685

 SCS-MP2 correlation energy:           -0.56718642   (PS=  1.200000  PT=  0.333333)
 SCS-MP2 total energy:               -133.55915219
 Iteration:   1     0.2378D+00
 Iteration:   2     0.3507D+00
 Iteration:   3     0.5874D-01
 Iteration:   4     0.6151D-01
 Iteration:   5     0.2923D-01
 Iteration:   6     0.1472D-01
 Iteration:   7     0.5336D-01
 Iteration:   8     0.3621D-02
 Iteration:   9     0.4685D-02
 Iteration:  10     0.1605D-02
 Iteration:  11     0.8947D-03
 Iteration:  12     0.2386D-02
 Iteration:  13     0.2379D-03
 Iteration:  14     0.2627D-03
 Iteration:  15     0.1425D-03
 Iteration:  16     0.4323D-04
 PAPT operator written to  7000.1
 PAPT orbitals and eigenvalues written to  7000.2

 MP3(D):                -0.58773815  -133.57970392    -0.01570130



 RESULTS
 =======

  Reference energy                   -132.991965768422
  MP3 singlet pair energy              -0.397253650907
  MP3 triplet pair energy              -0.190484500485
  MP3 correlation energy               -0.587738151392

 !MP3 total energy                   -133.579703919814

 Timing summary (sec):

 STEP                 CPU(USER)    SYS     CPU(TOT)    WALL
 Transformation          1.75      0.12      1.87      3.63
 CCSD iterations        26.69      0.22     26.91     13.56

 Program statistics:

 Available memory in ccsd:               805306032
 Min. memory needed in ccsd:               2562521
 Max. memory used in ccsd:                 3319133
 Max. memory used in cckext:               2525618 ( 1 integral passes)



 **********************************************************************************************************************************
 DATASETS  * FILE   NREC   LENGTH (MB)   RECORD NAMES
              1      21      356.56       500      610      700      900      950      970     1000      129      960     1100   
                                          VAR    BASINP    GEOM    SYMINP    ZMAT    AOBASIS   BASIS     P2S    ABASIS      S 
                                         1400     1410     1200     1210     1080     1600     1650     1300     1700     1380   
                                           T        V       H0       H01     AOSYM     SMH    MOLCAS    ERIS     OPER     JKOP   
                                         7000   
                                        PAPT AO    

              2       5        1.59       700     1000      520     2100     7000   
                                         GEOM     BASIS   MCVARS     RHF     PAPT   

 PROGRAMS   *        TOTAL      PAPT    HF-SCF       INT
 CPU TIMES  *        28.04      8.85     10.76      8.30
 REAL TIME  *        45.64 SEC
 DISK USED  *         1.28 GB
 **********************************************************************************************************************************


 PROGRAM * MP2 (Closed-shell)     Authors: C. Hampel, H.-J. Werner, 1991, M. Deegan, P.J. Knowles, 1992


 Convergence thresholds:  THRVAR = 1.00D-08  THRDEN = 1.00D-06

 Number of core orbitals:           3 (   3 )
 Number of closed-shell orbitals:   9 (   9 )
 Number of external orbitals:     148 ( 148 )

 Molecular orbitals read from record     7000.2  Type=PAPT/CANONICAL (state 1.1)

 Number of N-1 electron functions:               9
 Number of N-2 electron functions:              45
 Number of singly external CSFs:              1332
 Number of doubly external CSFs:            887778
 Total number of CSFs:                      889111

 Length of J-op  integral file:               0.00 MB
 Length of K-op  integral file:               1.82 MB

 Integral transformation finished. Total CPU:   1.52 sec, npass=  1  Memory used:   2.49 MW
 Orbital energies read from record       7000.2  Type=PAPT/CANONICAL (state 1.1)

 Memory needed for MP2:                      0.12 MW

 SCS-MP2 correlation energy:           -0.591366464184   (PS=  1.200000  PT=  0.333333)
 SCS-MP2 total energy:               -133.583332232606


  Reference energy                   -132.991965768422
  MP2 singlet pair energy              -0.384448343031
  MP2 triplet pair energy              -0.208974298736
  MP2 correlation energy               -0.593422641767

 !MP2 total energy                   -133.585388410189


 **********************************************************************************************************************************
 DATASETS  * FILE   NREC   LENGTH (MB)   RECORD NAMES
              1      21      356.56       500      610      700      900      950      970     1000      129      960     1100   
                                          VAR    BASINP    GEOM    SYMINP    ZMAT    AOBASIS   BASIS     P2S    ABASIS      S 
                                         1400     1410     1200     1210     1080     1600     1650     1300     1700     1380   
                                           T        V       H0       H01     AOSYM     SMH    MOLCAS    ERIS     OPER     JKOP   
                                         7000   
                                        PAPT AO    

              2       5        1.59       700     1000      520     2100     7000   
                                         GEOM     BASIS   MCVARS     RHF     PAPT   

 PROGRAMS   *        TOTAL       MP2      PAPT    HF-SCF       INT
 CPU TIMES  *        30.56      2.52      8.85     10.76      8.30
 REAL TIME  *        48.91 SEC
 DISK USED  *         1.28 GB
 **********************************************************************************************************************************

 Dump information in style XML to xml output                                                                      

 Orbitals will not be exported.

 **********************************************************************************************************************************

 MP2/cc-pVTZ energy=   -133.585388410189

             MP2            PAPT          HF-SCF
   -133.58538841   -133.57970392   -132.99196577
 **********************************************************************************************************************************
 Molpro calculation terminated
