
 Working directory              : /home/jovyan/scratch/molpro.jyiWYcDWsu/
 Global scratch directory       : /home/jovyan/scratch/molpro.jyiWYcDWsu/
 Wavefunction directory         : /home/jovyan/wfu/
 Main file repository           : /home/jovyan/scratch/molpro.jyiWYcDWsu/

 id        : cardiff

 Nodes                nprocs
 jupyter-c-2efrancisan    1
 GA implementation: MPI file
 GA implementation (serial work in mppx): MPI file

 Using customized tuning parameters: mindgm=1; mindgv=20; mindgc=4; mindgr=1; noblas=0; minvec=7
 default implementation of scratch files=df  


 Variables initialized (1031), CPU time= 0.01 sec
 
 
 
 geometry={
            9
     C          0.64643893      0.66204762      0.00000000
     C          0.62059167     -0.72735291      0.00000000
     O         -1.43762017     -1.04803439      0.00000000
     N         -1.81431293      0.12667382      0.00000000
     N         -1.28271604      1.17289417      0.00000000
     H          0.87969100      1.19136240      0.91554310
     H          0.87969100      1.19136240     -0.91554310
     H          0.75411826     -1.28447655      0.91762992
     H          0.75411826     -1.28447655     -0.91762992
 }
 basis=cc-pVDZ
 angstrom
 
 
 hf; papt;mp4
 
 
 
 {put,xml;noorbitals,nobasis}
 Commands initialized (841), CPU time= 0.01 sec, 704 directives.
 Default parameters read. Elapsed time= 0.10 sec

 Checking input...
 Passed
1


                                         ***  PROGRAM SYSTEM MOLPRO  ***
                                       Copyright, TTI GmbH Stuttgart, 2015
                                    Version 2023.1 linked Mon Jun  5 13:27:10 2023


 **********************************************************************************************************************************
 LABEL *                                                                                                                                                                 
  (16 PROC) 64 bit serial version                                                        DATE: 03-Aug-23          TIME: 11:02:07  
 **********************************************************************************************************************************

 SHA1:             9738a14712571edd23541b6d7c4f3a3d766f8287
 **********************************************************************************************************************************

 Memory per process:       805 MW
 Total memory per node:   1074 MW
 Total GA space:           268 MW

 GA preallocation disabled
 GA check enabled

 Geometry recognized as XYZ


 Variable memory set to 805.3 MW

 SETTING BASIS          =    CC-PVDZ


 Recomputing integrals since basis changed


 Using spherical harmonics

 Library entry C      S cc-pVDZ              selected for orbital group  1
 Library entry C      P cc-pVDZ              selected for orbital group  1
 Library entry C      D cc-pVDZ              selected for orbital group  1
 Library entry O      S cc-pVDZ              selected for orbital group  2
 Library entry O      P cc-pVDZ              selected for orbital group  2
 Library entry O      D cc-pVDZ              selected for orbital group  2
 Library entry N      S cc-pVDZ              selected for orbital group  3
 Library entry N      P cc-pVDZ              selected for orbital group  3
 Library entry N      D cc-pVDZ              selected for orbital group  3
 Library entry H      S cc-pVDZ              selected for orbital group  4
 Library entry H      P cc-pVDZ              selected for orbital group  4


 PROGRAM * SEWARD (Integral evaluation for generally contracted gaussian basis sets)     Author: Roland Lindh, 1990

 Geometry written to block  1 of record 700


 Point group  Cs  



 ATOMIC COORDINATES

 NR  ATOM    CHARGE       X              Y              Z

   1  C       6.00    1.221592534    1.251088683    0.000000000
   2  C       6.00    1.172748292   -1.374497796    0.000000000
   3  O       8.00   -2.716708393   -1.980497966    0.000000000
   4  N       7.00   -3.428554542    0.239378827    0.000000000
   5  N       7.00   -2.423982011    2.216448754    0.000000000
   6  H       1.00    1.662375064    2.251348651    1.730125714
   7  H       1.00    1.662375064    2.251348651   -1.730125714
   8  H       1.00    1.425076977   -2.427308893    1.734069233
   9  H       1.00    1.425076977   -2.427308893   -1.734069233

 Bond lengths in Bohr (Angstrom)

 1-2  2.626040769  1-5  3.771224447  1-6  2.046495597  1-7  2.046495597  2-8  2.044279109
     ( 1.389640930)     ( 1.995646035)     ( 1.082958832)     ( 1.082958832)     ( 1.081785917)

 2-9  2.044279109  3-4  2.331218119  4-5  2.217649988
     ( 1.081785917)     ( 1.233627502)     ( 1.173529835)

 Bond angles

  1-2-8  120.83841687   1-2-9  120.83841687   1-5-4  102.10396580   2-1-5  103.76593409

  2-1-6  119.51746247   2-1-7  119.51746247   3-4-5  135.28489323   5-1-6   94.76637282

  5-1-7   94.76637282   6-1-7  115.43155810   8-2-9  116.04467695

 NUCLEAR CHARGE:                   38
 NUMBER OF PRIMITIVE AOS:         163
 NUMBER OF SYMMETRY AOS:          158
 NUMBER OF CONTRACTIONS:           90   (   60A'  +   30A"  )
 NUMBER OF INNER CORE ORBITALS:     0   (    0A'  +    0A"  )
 NUMBER OF OUTER CORE ORBITALS:     5   (    5A'  +    0A"  )
 NUMBER OF VALENCE ORBITALS:       24   (   17A'  +    7A"  )


 NUCLEAR REPULSION ENERGY  166.89563664

 Eigenvalues of metric

         1 0.295E-02 0.453E-02 0.827E-02 0.126E-01 0.243E-01 0.290E-01 0.367E-01 0.438E-01
         2 0.162E-01 0.281E-01 0.395E-01 0.616E-01 0.997E-01 0.108E+00 0.142E+00 0.176E+00


 Contracted 2-electron integrals neglected if value below      1.0D-11
 AO integral compression algorithm  1   Integral accuracy      1.0D-11

     21.234 MB (compressed) written to integral file ( 53.1%)


 NUMBER OF SORTED TWO-ELECTRON INTEGRALS:    4336560.     BUFFER LENGTH:  32768
 NUMBER OF SEGMENTS:   1  SEGMENT LENGTH:    4336560      RECORD LENGTH: 524288

 Memory used in sort:       4.89 MW

 SORT1 READ     4964004. AND WROTE     4315133. INTEGRALS IN     13 RECORDS. CPU TIME:     0.07 SEC, REAL TIME:     0.18 SEC
 SORT2 READ     4315133. AND WROTE     4336560. INTEGRALS IN     81 RECORDS. CPU TIME:     0.12 SEC, REAL TIME:     0.16 SEC

 FILE SIZES:   FILE 1:    51.6 MBYTE,  FILE 4:    54.6 MBYTE,   TOTAL:    106.2 MBYTE

 OPERATOR DM      FOR CENTER  0  COORDINATES:    0.000000    0.000000    0.000000


 **********************************************************************************************************************************
 DATASETS  * FILE   NREC   LENGTH (MB)   RECORD NAMES
              1      19       46.48       500      610      700      900      950      970     1000      129      960     1100   
                                          VAR    BASINP    GEOM    SYMINP    ZMAT    AOBASIS   BASIS     P2S    ABASIS      S 
                                         1400     1410     1200     1210     1080     1600     1650     1300     1700   
                                           T        V       H0       H01     AOSYM     SMH    MOLCAS    ERIS     OPER   

 PROGRAMS   *        TOTAL       INT
 CPU TIMES  *         1.75      1.60
 REAL TIME  *         2.89 SEC
 DISK USED  *       101.74 MB
 **********************************************************************************************************************************


 Program * Restricted Hartree-Fock

 Orbital guess generated from atomic densities. Full valence occupancy:   22   7

 Initial occupancy:  15   4

 NELEC=   38   SYM=1   MS2= 0   THRE=1.0D-08   THRD=3.2D-06   THRG=3.2D-06  HFMA2=F  DIIS_START=2   DIIS_MAX=10   DIIS_INCORE=F

 Level shifts:    0.00 (CLOSED)    0.00 (OPEN)    0.30 (GAP_MIN)

 ITER           ETOT              DE          GRAD        DDIFF     DIIS  NEXP   TIME(IT)  TIME(TOT)  DIAG
   1     -261.54304000    -261.54304000     0.00D+00     0.16D+00     0     0       0.04      0.07    start
   2     -261.59696453      -0.05392453     0.12D-01     0.27D-01     1     0       0.04      0.11    diag
   3     -261.65382536      -0.05686083     0.95D-02     0.13D-01     2     0       0.03      0.14    diag
   4     -261.65599300      -0.00216764     0.12D-02     0.27D-02     3     0       0.03      0.17    diag
   5     -261.65641836      -0.00042536     0.53D-03     0.11D-02     4     0       0.04      0.21    diag
   6     -261.65657584      -0.00015748     0.28D-03     0.62D-03     5     0       0.03      0.24    diag
   7     -261.65667108      -0.00009524     0.18D-03     0.58D-03     6     0       0.04      0.28    diag
   8     -261.65670326      -0.00003218     0.77D-04     0.36D-03     7     0       0.03      0.31    fixocc
   9     -261.65671515      -0.00001189     0.46D-04     0.25D-03     8     0       0.04      0.35    diag
  10     -261.65671833      -0.00000318     0.22D-04     0.15D-03     9     0       0.03      0.38    diag/orth
  11     -261.65671866      -0.00000033     0.75D-05     0.49D-04     9     0       0.03      0.41    diag
  12     -261.65671869      -0.00000003     0.26D-05     0.12D-04     9     0       0.04      0.45    diag
  13     -261.65671869      -0.00000000     0.97D-06     0.40D-05     9     0       0.03      0.48    diag
  14     -261.65671869      -0.00000000     0.34D-06     0.13D-05     9     0       0.04      0.52    diag
  15     -261.65671869      -0.00000000     0.13D-06     0.29D-06     0     0       0.03      0.55    diag

 Final occupancy:  15   4

 !RHF STATE 1.1 Energy               -261.656718690173
  RHF One-electron energy            -686.555827186126
  RHF Two-electron energy             258.003471860435
  RHF Kinetic energy                  261.261120415344
  RHF Nuclear energy                  166.895636635517
  RHF Virial quotient                  -1.001514187317

 !RHF STATE 1.1 Dipole moment           0.85582688    -0.00938346     0.00000000
 Dipole moment /Debye                   2.17529497    -0.02385037     0.00000000

 Orbital energies:

           1.1          2.1          3.1          4.1          5.1          6.1          7.1          8.1          9.1         10.1
    -20.623210   -15.745994   -15.675774   -11.294963   -11.259424    -1.545316    -1.323127    -1.060877    -0.837916    -0.808454

          11.1         12.1         13.1         14.1         15.1         16.1         17.1
     -0.707252    -0.652508    -0.599121    -0.445601    -0.365499     0.083133     0.186378

           1.2          2.2          3.2          4.2          5.2          6.2
     -0.696068    -0.647327    -0.539929    -0.446076     0.169934     0.219504


 HOMO     15.1    -0.365499 =      -9.9457eV
 LUMO     16.1     0.083133 =       2.2622eV
 LUMO-HOMO         0.448632 =      12.2079eV

 Orbitals saved in record  2100.2


 **********************************************************************************************************************************
 DATASETS  * FILE   NREC   LENGTH (MB)   RECORD NAMES
              1      19       46.48       500      610      700      900      950      970     1000      129      960     1100   
                                          VAR    BASINP    GEOM    SYMINP    ZMAT    AOBASIS   BASIS     P2S    ABASIS      S 
                                         1400     1410     1200     1210     1080     1600     1650     1300     1700   
                                           T        V       H0       H01     AOSYM     SMH    MOLCAS    ERIS     OPER   

              2       4        0.59       700     1000      520     2100   
                                         GEOM     BASIS   MCVARS     RHF  

 PROGRAMS   *        TOTAL    HF-SCF       INT
 CPU TIMES  *         2.30      0.54      1.60
 REAL TIME  *         3.52 SEC
 DISK USED  *       101.74 MB
 **********************************************************************************************************************************


 PROGRAM * PAPT (Closed-shell)     Authors: C. Hampel, H.-J. Werner, 1991, P.J. Knowles, 2021


 Convergence thresholds:  THRVAR = 1.00D-08  THRDEN = 1.00D-06

 Number of core orbitals:           5 (   5   0 )
 Number of closed-shell orbitals:  14 (  10   4 )
 Number of external orbitals:      71 (  45  26 )

 Molecular orbitals read from record     2100.2  Type=RHF/CANONICAL  

 Number of N-1 electron functions:              14
 Number of N-2 electron functions:             105
 Number of singly external CSFs:               554
 Number of doubly external CSFs:            250755
 Total number of CSFs:                      251310

 Length of J-op  integral file:               0.00 MB
 Length of K-op  integral file:               0.37 MB

 Integral transformation finished. Total CPU:   0.09 sec, npass=  1  Memory used:   0.52 MW

 Reference energy:                   -261.65671869

                        CORR.ENERGY   TOTAL ENERGY   ENERGY CHANGE
 MP2:                   -0.83779707  -262.49451576    -0.83779707

 SCS-MP2 correlation energy:           -0.80872921   (PS=  1.200000  PT=  0.333333)
 SCS-MP2 total energy:               -262.46544790
 Iteration:   1     0.7232D+00
 Iteration:   2     0.6161D+00
 Iteration:   3     0.2391D+00
 Iteration:   4     0.1584D+00
 Iteration:   5     0.1953D+00
 Iteration:   6     0.8413D-01
 Iteration:   7     0.2822D+00
 Iteration:   8     0.4540D-01
 Iteration:   9     0.9810D-01
 Iteration:  10     0.2196D-01
 Iteration:  11     0.1688D-01
 Iteration:  12     0.1790D-01
 Iteration:  13     0.5083D-02
 Iteration:  14     0.4793D+00
 Iteration:  15     0.1922D-02
 Iteration:  16     0.2812D-02
 Iteration:  17     0.1130D-02
 Iteration:  18     0.1182D-02
 Iteration:  19     0.6876D-03
 Iteration:  20     0.4057D-03
 Iteration:  21     0.3696D-03
 Iteration:  22     0.1743D-03
 Iteration:  23     0.3185D-03
 Iteration:  24     0.4748D-04
 PAPT operator written to  7000.1
 PAPT orbitals and eigenvalues written to  7000.2

 MP3(D):                -0.82479407  -262.48151276     0.01300299



 RESULTS
 =======

  Reference energy                   -261.656718690173
  MP3 singlet pair energy              -0.533270553206
  MP3 triplet pair energy              -0.291523520728
  MP3 correlation energy               -0.824794073934

 !MP3 total energy                   -262.481512764107

 Timing summary (sec):

 STEP                 CPU(USER)    SYS     CPU(TOT)    WALL
 Transformation          0.11      0.02      0.13      0.14
 CCSD iterations         4.10      0.04      4.14      1.65

 Program statistics:

 Available memory in ccsd:               805305569
 Min. memory needed in ccsd:                712162
 Max. memory used in ccsd:                  922481
 Max. memory used in cckext:               1044914 ( 1 integral passes)



 **********************************************************************************************************************************
 DATASETS  * FILE   NREC   LENGTH (MB)   RECORD NAMES
              1      21       51.59       500      610      700      900      950      970     1000      129      960     1100   
                                          VAR    BASINP    GEOM    SYMINP    ZMAT    AOBASIS   BASIS     P2S    ABASIS      S 
                                         1400     1410     1200     1210     1080     1600     1650     1300     1700     1380   
                                           T        V       H0       H01     AOSYM     SMH    MOLCAS    ERIS     OPER     JKOP   
                                         7000   
                                        PAPT AO    

              2       5        0.79       700     1000      520     2100     7000   
                                         GEOM     BASIS   MCVARS     RHF     PAPT   

 PROGRAMS   *        TOTAL      PAPT    HF-SCF       INT
 CPU TIMES  *         4.01      1.69      0.54      1.60
 REAL TIME  *         5.36 SEC
 DISK USED  *       101.74 MB
 **********************************************************************************************************************************


 PROGRAM * MP4 (Closed-shell)     Authors: C. Hampel, H.-J. Werner, 1991, M. Deegan, P.J. Knowles, 1992


 Convergence thresholds:  THRVAR = 1.00D-08  THRDEN = 1.00D-06

 MP4(T)     terms to be evaluated (factor= 0.000)


 Number of core orbitals:           5 (   5   0 )
 Number of closed-shell orbitals:  14 (  10   4 )
 Number of external orbitals:      71 (  45  26 )

 Molecular orbitals read from record     7000.2  Type=PAPT/CANONICAL (state 1.1)

 Number of N-1 electron functions:              14
 Number of N-2 electron functions:             105
 Number of singly external CSFs:               554
 Number of doubly external CSFs:            250755
 Total number of CSFs:                      251310

 Length of J-op  integral file:               0.00 MB
 Length of K-op  integral file:               0.37 MB

 Memory could be reduced to 3.65 Mwords without degradation in triples

 Integral transformation finished. Total CPU:   0.24 sec, npass=  1  Memory used:   2.03 MW
 Orbital energies read from record       7000.2  Type=PAPT/CANONICAL (state 1.1)

 Reference energy:                   -261.65671869

                        CORR.ENERGY   TOTAL ENERGY   ENERGY CHANGE
 MP2:                   -0.83753507  -262.49425376    -0.83753507

 SCS-MP2 correlation energy:           -0.81469291   (PS=  1.200000  PT=  0.333333)
 SCS-MP2 total energy:               -262.47141160

 MP3(D):                -0.83768481  -262.49440350    -0.00014974
 MP4(DQ):               -0.82999490  -262.48671359     0.00768991
 MP4(SDQ):              -0.84193007  -262.49864876    -0.01193517

 Norm of t1 vector:      0.10618448      S-energy:    -0.01193517      T1 diagnostic:  0.01418950

 Largest off-diagonal element in interal  block of Fock matrix:  0.17D+00
 Largest off-diagonal element in external block of Fock matrix:  0.17D+00


 Total CPU time for triples:      3.67 sec


 RESULTS
 =======

  Reference energy                   -261.656718690173
  MP4(SDQ) singlet pair energy         -0.532449812982
  MP4(SDQ) triplet pair energy         -0.297545083852
  MP4(SDQ) correlation energy          -0.841930069564

  Triples contribution                 -0.044435410010
  Total correlation energy             -0.886365479575

  MP4(SDQ) total energy              -262.498648759738
 !MP4(SDTQ) total energy             -262.543084169748

 Timing summary (sec):

 STEP                 CPU(USER)    SYS     CPU(TOT)    WALL
 Transformation          0.29      0.04      0.33      0.52
 CCSD iterations         5.11      0.04      5.15      0.95
 Triples                 3.67      0.24      3.91      3.94

 Program statistics:

 Available memory in ccsd:               805305569
 Min. memory needed in ccsd:                712162
 Max. memory used in ccsd:                  922481
 Max. memory used in cckext:               1044914 ( 1 integral passes)



 **********************************************************************************************************************************
 DATASETS  * FILE   NREC   LENGTH (MB)   RECORD NAMES
              1      22       61.37       500      610      700      900      950      970     1000      129      960     1100   
                                          VAR    BASINP    GEOM    SYMINP    ZMAT    AOBASIS   BASIS     P2S    ABASIS      S 
                                         1400     1410     1200     1210     1080     1600     1650     1300     1700     1380   
                                           T        V       H0       H01     AOSYM     SMH    MOLCAS    ERIS     OPER     JKOP   
                                         7000     1380(1)
                                        PAPT AO   JKOP   

              2       5        0.79       700     1000      520     2100     7000   
                                         GEOM     BASIS   MCVARS     RHF     PAPT   

 PROGRAMS   *        TOTAL       MP4      PAPT    HF-SCF       INT
 CPU TIMES  *         8.87      4.86      1.69      0.54      1.60
 REAL TIME  *        10.82 SEC
 DISK USED  *       101.74 MB
 **********************************************************************************************************************************

 Dump information in style XML to xml output                                                                      

 Orbitals will not be exported.

 **********************************************************************************************************************************

 MP4/cc-pVDZ energy=   -262.543084169748

             MP4            PAPT          HF-SCF
   -262.54308417   -262.48151276   -261.65671869
 **********************************************************************************************************************************
 Molpro calculation terminated
