
 Working directory              : /home/jovyan/scratch/molpro.WeII6mwxya/
 Global scratch directory       : /home/jovyan/scratch/molpro.WeII6mwxya/
 Wavefunction directory         : /home/jovyan/wfu/
 Main file repository           : /home/jovyan/scratch/molpro.WeII6mwxya/

 id        : cardiff

 Nodes                nprocs
 jupyter-c-2efrancisan    1
 GA implementation: MPI file
 GA implementation (serial work in mppx): MPI file

 Using customized tuning parameters: mindgm=1; mindgv=20; mindgc=4; mindgr=1; noblas=0; minvec=7
 default implementation of scratch files=df  


 Variables initialized (1031), CPU time= 0.00 sec
 
 
 
 geometry={
 8
  2NH3TS (Full point group C2v)
  H 0.673346 0.000000 -0.244115
  H -0.673346 0.000000 -0.244115
  H 0.000000 0.809962 1.821379
  H 0.000000 -0.839127 -1.730643
  N 0.000000 0.000000 -1.165033
  N 0.000000 0.000000 1.208856
  H 0.000000 -0.809962 1.821379
  H 0.000000 0.839127 -1.730643
 }
 basis=cc-pVTZ
 angstrom
 
 
 hf; papt;mp4
 
 
 
 {put,xml;noorbitals,nobasis}
 Commands initialized (841), CPU time= 0.01 sec, 704 directives.
 Default parameters read. Elapsed time= 0.08 sec

 Checking input...
 Passed
1


                                         ***  PROGRAM SYSTEM MOLPRO  ***
                                       Copyright, TTI GmbH Stuttgart, 2015
                                    Version 2023.1 linked Mon Jun  5 13:27:10 2023


 **********************************************************************************************************************************
 LABEL *                                                                                                                                                                 
  (16 PROC) 64 bit serial version                                                        DATE: 03-Aug-23          TIME: 13:21:44  
 **********************************************************************************************************************************

 SHA1:             9738a14712571edd23541b6d7c4f3a3d766f8287
 **********************************************************************************************************************************

 Memory per process:       805 MW
 Total memory per node:   1074 MW
 Total GA space:           268 MW

 GA preallocation disabled
 GA check enabled

 Geometry recognized as XYZ


 Variable memory set to 805.3 MW

 SETTING BASIS          =    CC-PVTZ


 Recomputing integrals since basis changed


 Using spherical harmonics

 Library entry H      S cc-pVTZ              selected for orbital group  1
 Library entry H      P cc-pVTZ              selected for orbital group  1
 Library entry H      D cc-pVTZ              selected for orbital group  1
 Library entry N      S cc-pVTZ              selected for orbital group  2
 Library entry N      P cc-pVTZ              selected for orbital group  2
 Library entry N      D cc-pVTZ              selected for orbital group  2
 Library entry N      F cc-pVTZ              selected for orbital group  2


 PROGRAM * SEWARD (Integral evaluation for generally contracted gaussian basis sets)     Author: Roland Lindh, 1990

 Geometry written to block  1 of record 700


 Point group  C2v 



 ATOMIC COORDINATES

 NR  ATOM    CHARGE       X              Y              Z

   1  H       1.00    1.272439527    0.000000000   -0.461310493
   2  H       1.00   -1.272439527    0.000000000   -0.461310493
   3  H       1.00    0.000000000    1.530606351    3.441907479
   4  H       1.00    0.000000000   -1.530606351    3.441907479
   5  H       1.00    0.000000000   -1.585720214   -3.270441290
   6  H       1.00    0.000000000    1.585720214   -3.270441290
   7  N       7.00    0.000000000    0.000000000   -2.201593296
   8  N       7.00    0.000000000    0.000000000    2.284406764

 Bond lengths in Bohr (Angstrom)

 1-7  2.155849388  2-7  2.155849388  3-8  1.919000706  4-8  1.919000706  5-7  1.912313946
     ( 1.140826366)     ( 1.140826366)     ( 1.015491441)     ( 1.015491441)     ( 1.011952960)

 6-7  1.912313946
     ( 1.011952960)

 Bond angles

  1-7-2   72.34617175   1-7-5  116.81997208   1-7-6  116.81997208   2-7-5  116.81997208

  2-7-6  116.81997208   3-8-4  105.80418055   5-7-6  112.03645382

 NUCLEAR CHARGE:                   20
 NUMBER OF PRIMITIVE AOS:         196
 NUMBER OF SYMMETRY AOS:          180
 NUMBER OF CONTRACTIONS:          144   (   56A1  +   32B1  +   38B2  +   18A2  )
 NUMBER OF INNER CORE ORBITALS:     0   (    0A1  +    0B1  +    0B2  +    0A2  )
 NUMBER OF OUTER CORE ORBITALS:     2   (    2A1  +    0B1  +    0B2  +    0A2  )
 NUMBER OF VALENCE ORBITALS:       14   (    7A1  +    3B1  +    4B2  +    0A2  )


 NUCLEAR REPULSION ENERGY   45.14680952


 Eigenvalues of metric

         1 0.143E-02 0.212E-02 0.311E-02 0.413E-02 0.473E-02 0.941E-02 0.107E-01 0.118E-01
         2 0.366E-02 0.118E-01 0.272E-01 0.354E-01 0.411E-01 0.563E-01 0.804E-01 0.958E-01
         3 0.231E-02 0.358E-02 0.766E-02 0.832E-02 0.320E-01 0.361E-01 0.443E-01 0.559E-01
         4 0.667E-01 0.969E-01 0.201E+00 0.278E+00 0.326E+00 0.406E+00 0.484E+00 0.573E+00


 Contracted 2-electron integrals neglected if value below      1.0D-11
 AO integral compression algorithm  1   Integral accuracy      1.0D-11

     60.817 MB (compressed) written to integral file ( 46.1%)


 NUMBER OF SORTED TWO-ELECTRON INTEGRALS:   14100324.     BUFFER LENGTH:  32768
 NUMBER OF SEGMENTS:   1  SEGMENT LENGTH:   14100324      RECORD LENGTH: 524288

 Memory used in sort:      14.66 MW

 SORT1 READ    16534376. AND WROTE    12812240. INTEGRALS IN     37 RECORDS. CPU TIME:     0.40 SEC, REAL TIME:     0.52 SEC
 SORT2 READ    12812240. AND WROTE    14100324. INTEGRALS IN    232 RECORDS. CPU TIME:     0.43 SEC, REAL TIME:     0.49 SEC

 FILE SIZES:   FILE 1:    91.4 MBYTE,  FILE 4:   155.3 MBYTE,   TOTAL:    246.7 MBYTE

 OPERATOR DM      FOR CENTER  0  COORDINATES:    0.000000    0.000000    0.000000


 **********************************************************************************************************************************
 DATASETS  * FILE   NREC   LENGTH (MB)   RECORD NAMES
              1      19       80.61       500      610      700      900      950      970     1000      129      960     1100   
                                          VAR    BASINP    GEOM    SYMINP    ZMAT    AOBASIS   BASIS     P2S    ABASIS      S 
                                         1400     1410     1200     1210     1080     1600     1650     1300     1700   
                                           T        V       H0       H01     AOSYM     SMH    MOLCAS    ERIS     OPER   

 PROGRAMS   *        TOTAL       INT
 CPU TIMES  *         3.39      3.26
 REAL TIME  *         4.87 SEC
 DISK USED  *       235.70 MB
 **********************************************************************************************************************************


 Program * Restricted Hartree-Fock

 Orbital guess generated from atomic densities. Full valence occupancy:    9   3   4   0

 Initial occupancy:   6   2   2   0

 NELEC=   20   SYM=1   MS2= 0   THRE=1.0D-08   THRD=3.2D-06   THRG=3.2D-06  HFMA2=F  DIIS_START=2   DIIS_MAX=10   DIIS_INCORE=F

 Level shifts:    0.00 (CLOSED)    0.00 (OPEN)    0.30 (GAP_MIN)

 ITER           ETOT              DE          GRAD        DDIFF     DIIS  NEXP   TIME(IT)  TIME(TOT)  DIAG
   1     -112.25596192    -112.25596192     0.00D+00     0.11D+00     0     0       0.08      0.16    start
   2     -112.29800697      -0.04204506     0.12D-01     0.19D-01     1     0       0.08      0.24    diag
   3     -112.31915190      -0.02114492     0.77D-02     0.70D-02     2     0       0.08      0.32    diag
   4     -112.31975387      -0.00060197     0.97D-03     0.13D-02     3     0       0.08      0.40    diag
   5     -112.31980057      -0.00004671     0.29D-03     0.35D-03     4     0       0.08      0.48    diag
   6     -112.31980674      -0.00000616     0.90D-04     0.16D-03     5     0       0.08      0.56    diag
   7     -112.31980717      -0.00000043     0.19D-04     0.41D-04     6     0       0.08      0.64    diag
   8     -112.31980723      -0.00000006     0.64D-05     0.18D-04     7     0       0.08      0.72    fixocc
   9     -112.31980723      -0.00000000     0.14D-05     0.40D-05     8     0       0.08      0.80    diag
  10     -112.31980723      -0.00000000     0.26D-06     0.67D-06     9     0       0.08      0.88    diag/orth
  11     -112.31980723      -0.00000000     0.51D-07     0.92D-07     0     0       0.08      0.96    diag

 Final occupancy:   6   2   2   0

 !RHF STATE 1.1 Energy               -112.319807233300
  RHF One-electron energy            -241.938428508136
  RHF Two-electron energy              84.471811759412
  RHF Kinetic energy                  112.150196577316
  RHF Nuclear energy                   45.146809515424
  RHF Virial quotient                  -1.001512352730

 !RHF STATE 1.1 Dipole moment           0.00000000     0.00000000    -1.58441855
 Dipole moment /Debye                   0.00000000     0.00000000    -4.02719026

 Orbital energies:

           1.1          2.1          3.1          4.1          5.1          6.1          7.1          8.1
    -15.602225   -15.436989    -1.215082    -1.009063    -0.736983    -0.384812     0.118503     0.196717

           1.2          2.2          3.2          4.2
     -0.573777    -0.302158     0.261467     0.403718

           1.3          2.3          3.3          4.3
     -0.702230    -0.534084     0.179709     0.258913

           1.4          2.4
      0.700133     0.892687


 HOMO      2.2    -0.302158 =      -8.2221eV
 LUMO      7.1     0.118503 =       3.2246eV
 LUMO-HOMO         0.420661 =      11.4468eV

 Orbitals saved in record  2100.2


 **********************************************************************************************************************************
 DATASETS  * FILE   NREC   LENGTH (MB)   RECORD NAMES
              1      19       80.61       500      610      700      900      950      970     1000      129      960     1100   
                                          VAR    BASINP    GEOM    SYMINP    ZMAT    AOBASIS   BASIS     P2S    ABASIS      S 
                                         1400     1410     1200     1210     1080     1600     1650     1300     1700   
                                           T        V       H0       H01     AOSYM     SMH    MOLCAS    ERIS     OPER   

              2       4        0.60       700     1000      520     2100   
                                         GEOM     BASIS   MCVARS     RHF  

 PROGRAMS   *        TOTAL    HF-SCF       INT
 CPU TIMES  *         4.35      0.95      3.26
 REAL TIME  *         6.45 SEC
 DISK USED  *       235.70 MB
 **********************************************************************************************************************************


 PROGRAM * PAPT (Closed-shell)     Authors: C. Hampel, H.-J. Werner, 1991, P.J. Knowles, 2021


 Convergence thresholds:  THRVAR = 1.00D-08  THRDEN = 1.00D-06

 Number of core orbitals:           2 (   2   0   0   0 )
 Number of closed-shell orbitals:   8 (   4   2   2   0 )
 Number of external orbitals:     134 (  50  30  36  18 )

 Molecular orbitals read from record     2100.2  Type=RHF/CANONICAL  

 Number of N-1 electron functions:               8
 Number of N-2 electron functions:              36
 Number of singly external CSFs:               332
 Number of doubly external CSFs:            148424
 Total number of CSFs:                      148757

 Length of J-op  integral file:               0.00 MB
 Length of K-op  integral file:               0.47 MB

 Integral transformation finished. Total CPU:   0.18 sec, npass=  1  Memory used:   0.29 MW

 Reference energy:                   -112.31980723

                        CORR.ENERGY   TOTAL ENERGY   ENERGY CHANGE
 MP2:                   -0.49854012  -112.81834735    -0.49854012

 SCS-MP2 correlation energy:           -0.49703427   (PS=  1.200000  PT=  0.333333)
 SCS-MP2 total energy:               -112.81684151
 Iteration:   1     0.2204D+00
 Iteration:   2     0.2931D+00
 Iteration:   3     0.7302D-01
 Iteration:   4     0.5956D-01
 Iteration:   5     0.5921D-01
 Iteration:   6     0.2662D-01
 Iteration:   7     0.2972D+00
 Iteration:   8     0.1249D-01
 Iteration:   9     0.9933D-02
 Iteration:  10     0.1007D-01
 Iteration:  11     0.3119D-02
 Iteration:  12     0.1445D-01
 Iteration:  13     0.1366D-02
 Iteration:  14     0.2690D-02
 Iteration:  15     0.5233D-03
 Iteration:  16     0.3420D-03
 Iteration:  17     0.1281D-02
 Iteration:  18     0.8760D-04
 PAPT operator written to  7000.1
 PAPT orbitals and eigenvalues written to  7000.2

 MP3(D):                -0.51370600  -112.83351324    -0.01516589



 RESULTS
 =======

  Reference energy                   -112.319807233300
  MP3 singlet pair energy              -0.350677105819
  MP3 triplet pair energy              -0.163028897819
  MP3 correlation energy               -0.513706003637

 !MP3 total energy                   -112.833513236938

 Timing summary (sec):

 STEP                 CPU(USER)    SYS     CPU(TOT)    WALL
 Transformation          0.18      0.02      0.20      0.25
 CCSD iterations         5.20      0.06      5.26      9.20

 Program statistics:

 Available memory in ccsd:               805306106
 Min. memory needed in ccsd:                460769
 Max. memory used in ccsd:                  584637
 Max. memory used in cckext:                588872 ( 1 integral passes)



 **********************************************************************************************************************************
 DATASETS  * FILE   NREC   LENGTH (MB)   RECORD NAMES
              1      21       82.98       500      610      700      900      950      970     1000      129      960     1100   
                                          VAR    BASINP    GEOM    SYMINP    ZMAT    AOBASIS   BASIS     P2S    ABASIS      S 
                                         1400     1410     1200     1210     1080     1600     1650     1300     1700     1380   
                                           T        V       H0       H01     AOSYM     SMH    MOLCAS    ERIS     OPER     JKOP   
                                         7000   
                                        PAPT AO    

              2       5        0.84       700     1000      520     2100     7000   
                                         GEOM     BASIS   MCVARS     RHF     PAPT   

 PROGRAMS   *        TOTAL      PAPT    HF-SCF       INT
 CPU TIMES  *         5.19      0.83      0.95      3.26
 REAL TIME  *        15.94 SEC
 DISK USED  *       235.70 MB
 **********************************************************************************************************************************


 PROGRAM * MP4 (Closed-shell)     Authors: C. Hampel, H.-J. Werner, 1991, M. Deegan, P.J. Knowles, 1992


 Convergence thresholds:  THRVAR = 1.00D-08  THRDEN = 1.00D-06

 MP4(T)     terms to be evaluated (factor= 0.000)


 Number of core orbitals:           2 (   2   0   0   0 )
 Number of closed-shell orbitals:   8 (   4   2   2   0 )
 Number of external orbitals:     134 (  50  30  36  18 )

 Molecular orbitals read from record     7000.2  Type=PAPT/CANONICAL (state 1.1)

 Number of N-1 electron functions:               8
 Number of N-2 electron functions:              36
 Number of singly external CSFs:               332
 Number of doubly external CSFs:            148424
 Total number of CSFs:                      148757

 Length of J-op  integral file:               0.00 MB
 Length of K-op  integral file:               0.47 MB

 Memory could be reduced to 6.54 Mwords without degradation in triples

 Integral transformation finished. Total CPU:   0.33 sec, npass=  1  Memory used:   1.16 MW
 Orbital energies read from record       7000.2  Type=PAPT/CANONICAL (state 1.1)

 Reference energy:                   -112.31980723

                        CORR.ENERGY   TOTAL ENERGY   ENERGY CHANGE
 MP2:                   -0.51800889  -112.83781612    -0.51800889

 SCS-MP2 correlation energy:           -0.51808383   (PS=  1.200000  PT=  0.333333)
 SCS-MP2 total energy:               -112.83789107

 MP3(D):                -0.51807473  -112.83788197    -0.00006584
 MP4(DQ):               -0.51242313  -112.83223037     0.00565160
 MP4(SDQ):              -0.51555536  -112.83536259    -0.00313222

 Norm of t1 vector:      0.04469357      S-energy:    -0.00313222      T1 diagnostic:  0.00790078

 Largest off-diagonal element in interal  block of Fock matrix:  0.55D-01
 Largest off-diagonal element in external block of Fock matrix:  0.36D+00


 Total CPU time for triples:      2.95 sec


 RESULTS
 =======

  Reference energy                   -112.319807233300
  MP4(SDQ) singlet pair energy         -0.350077102190
  MP4(SDQ) triplet pair energy         -0.162346032255
  MP4(SDQ) correlation energy          -0.515555357818

  Triples contribution                 -0.021967782146
  Total correlation energy             -0.537523139964

  MP4(SDQ) total energy              -112.835362591118
 !MP4(SDTQ) total energy             -112.857330373264

 Timing summary (sec):

 STEP                 CPU(USER)    SYS     CPU(TOT)    WALL
 Transformation          0.42      0.05      0.47      0.68
 CCSD iterations         5.85      0.02      5.87      0.47
 Triples                 2.95      0.12      3.07      3.10

 Program statistics:

 Available memory in ccsd:               805306106
 Min. memory needed in ccsd:                460769
 Max. memory used in ccsd:                  584637
 Max. memory used in cckext:                588872 ( 1 integral passes)



 **********************************************************************************************************************************
 DATASETS  * FILE   NREC   LENGTH (MB)   RECORD NAMES
              1      22      101.78       500      610      700      900      950      970     1000      129      960     1100   
                                          VAR    BASINP    GEOM    SYMINP    ZMAT    AOBASIS   BASIS     P2S    ABASIS      S 
                                         1400     1410     1200     1210     1080     1600     1650     1300     1700     1380   
                                           T        V       H0       H01     AOSYM     SMH    MOLCAS    ERIS     OPER     JKOP   
                                         7000     1380(1)
                                        PAPT AO   JKOP   

              2       5        0.84       700     1000      520     2100     7000   
                                         GEOM     BASIS   MCVARS     RHF     PAPT   

 PROGRAMS   *        TOTAL       MP4      PAPT    HF-SCF       INT
 CPU TIMES  *         9.04      3.84      0.83      0.95      3.26
 REAL TIME  *        20.23 SEC
 DISK USED  *       235.70 MB
 **********************************************************************************************************************************

 Dump information in style XML to xml output                                                                      

 Orbitals will not be exported.

 **********************************************************************************************************************************

 MP4/cc-pVTZ energy=   -112.857330373264

             MP4            PAPT          HF-SCF
   -112.85733037   -112.83351324   -112.31980723
 **********************************************************************************************************************************
 Molpro calculation terminated
