
 Working directory              : /home/jovyan/scratch/molpro.iSGIz7kRR3/
 Global scratch directory       : /home/jovyan/scratch/molpro.iSGIz7kRR3/
 Wavefunction directory         : /home/jovyan/wfu/
 Main file repository           : /home/jovyan/scratch/molpro.iSGIz7kRR3/

 id        : cardiff

 Nodes                nprocs
 jupyter-c-2efrancisan    1
 GA implementation: MPI file
 GA implementation (serial work in mppx): MPI file

 Using customized tuning parameters: mindgm=1; mindgv=20; mindgc=4; mindgr=1; noblas=0; minvec=7
 default implementation of scratch files=df  


 Variables initialized (1031), CPU time= 0.00 sec
 
 
 
 geometry={
 7
  C 0.000000 0.441567 0.000000
  H -0.160761 1.511265 0.000000
  O -1.190786 -0.218672 0.000000
  C 1.211912 -0.100389 0.000000
  H 1.366272 -1.172267 0.000000
  H 2.084631 0.533570 0.000000
  H -1.035326 -1.170266 0.000000
 }
 basis=cc-pVDZ
 angstrom
 
 
 hf; papt;mp2
 
 
 
 {put,xml;noorbitals,nobasis}
 Commands initialized (841), CPU time= 0.01 sec, 704 directives.
 Default parameters read. Elapsed time= 0.10 sec

 Checking input...
 Passed
1


                                         ***  PROGRAM SYSTEM MOLPRO  ***
                                       Copyright, TTI GmbH Stuttgart, 2015
                                    Version 2023.1 linked Mon Jun  5 13:27:10 2023


 **********************************************************************************************************************************
 LABEL *                                                                                                                                                                 
  (16 PROC) 64 bit serial version                                                        DATE: 02-Aug-23          TIME: 15:41:33  
 **********************************************************************************************************************************

 SHA1:             9738a14712571edd23541b6d7c4f3a3d766f8287
 **********************************************************************************************************************************

 Memory per process:       805 MW
 Total memory per node:   1074 MW
 Total GA space:           268 MW

 GA preallocation disabled
 GA check enabled

 Geometry recognized as XYZ


 Variable memory set to 805.3 MW

 SETTING BASIS          =    CC-PVDZ


 Recomputing integrals since basis changed


 Using spherical harmonics

 Library entry C      S cc-pVDZ              selected for orbital group  1
 Library entry C      P cc-pVDZ              selected for orbital group  1
 Library entry C      D cc-pVDZ              selected for orbital group  1
 Library entry H      S cc-pVDZ              selected for orbital group  2
 Library entry H      P cc-pVDZ              selected for orbital group  2
 Library entry O      S cc-pVDZ              selected for orbital group  3
 Library entry O      P cc-pVDZ              selected for orbital group  3
 Library entry O      D cc-pVDZ              selected for orbital group  3


 PROGRAM * SEWARD (Integral evaluation for generally contracted gaussian basis sets)     Author: Roland Lindh, 1990

 Geometry written to block  1 of record 700


 Point group  Cs  



 ATOMIC COORDINATES

 NR  ATOM    CHARGE       X              Y              Z

   1  C       6.00    0.000000000    0.834440696    0.000000000
   2  H       1.00   -0.303794262    2.855876952    0.000000000
   3  O       8.00   -2.250259413   -0.413230191    0.000000000
   4  C       6.00    2.290181767   -0.189707716    0.000000000
   5  H       1.00    2.581879892   -2.215263575    0.000000000
   6  H       1.00    3.939381661    1.008301168    0.000000000
   7  H       1.00   -1.956482590   -2.211482233    0.000000000

 Bond lengths in Bohr (Angstrom)

 1-2  2.044136857  1-3  2.573004094  1-4  2.508747196  3-7  1.822090895  4-5  2.046451645
     ( 1.081710641)     ( 1.361575130)     ( 1.327571844)     ( 0.964208978)     ( 1.082935574)

 4-6  2.038402702
     ( 1.078676257)

 Bond angles

  1-3-7  109.72812838   1-4-5  122.28852259   1-4-6  119.91090294   2-1-3  110.45965059

  2-1-4  122.64056834   3-1-4  126.89978108   5-4-6  117.80057446

 NUCLEAR CHARGE:                   24
 NUMBER OF PRIMITIVE AOS:         109
 NUMBER OF SYMMETRY AOS:          106
 NUMBER OF CONTRACTIONS:           62   (   46A'  +   16A"  )
 NUMBER OF INNER CORE ORBITALS:     0   (    0A'  +    0A"  )
 NUMBER OF OUTER CORE ORBITALS:     3   (    3A'  +    0A"  )
 NUMBER OF VALENCE ORBITALS:       16   (   13A'  +    3A"  )


 NUCLEAR REPULSION ENERGY   70.36485406

 Eigenvalues of metric

         1 0.276E-02 0.997E-02 0.149E-01 0.216E-01 0.263E-01 0.296E-01 0.362E-01 0.442E-01
         2 0.994E-01 0.169E+00 0.195E+00 0.306E+00 0.381E+00 0.491E+00 0.532E+00 0.562E+00


 Contracted 2-electron integrals neglected if value below      1.0D-11
 AO integral compression algorithm  1   Integral accuracy      1.0D-11

     5.767 MB (compressed) written to integral file ( 59.0%)


 NUMBER OF SORTED TWO-ELECTRON INTEGRALS:    1035185.     BUFFER LENGTH:  32768
 NUMBER OF SEGMENTS:   1  SEGMENT LENGTH:    1035185      RECORD LENGTH: 524288

 Memory used in sort:       1.59 MW

 SORT1 READ     1187630. AND WROTE     1025971. INTEGRALS IN      3 RECORDS. CPU TIME:     0.02 SEC, REAL TIME:     0.09 SEC
 SORT2 READ     1025971. AND WROTE     1035185. INTEGRALS IN     22 RECORDS. CPU TIME:     0.05 SEC, REAL TIME:     0.08 SEC

 FILE SIZES:   FILE 1:    36.0 MBYTE,  FILE 4:    12.6 MBYTE,   TOTAL:     48.6 MBYTE

 OPERATOR DM      FOR CENTER  0  COORDINATES:    0.000000    0.000000    0.000000


 **********************************************************************************************************************************
 DATASETS  * FILE   NREC   LENGTH (MB)   RECORD NAMES
              1      19       33.25       500      610      700      900      950      970     1000      129      960     1100   
                                          VAR    BASINP    GEOM    SYMINP    ZMAT    AOBASIS   BASIS     P2S    ABASIS      S 
                                         1400     1410     1200     1210     1080     1600     1650     1300     1700   
                                           T        V       H0       H01     AOSYM     SMH    MOLCAS    ERIS     OPER   

 PROGRAMS   *        TOTAL       INT
 CPU TIMES  *         0.99      0.85
 REAL TIME  *         2.66 SEC
 DISK USED  *        46.80 MB
 **********************************************************************************************************************************


 Program * Restricted Hartree-Fock

 Orbital guess generated from atomic densities. Full valence occupancy:   16   3

 Initial occupancy:  10   2

 NELEC=   24   SYM=1   MS2= 0   THRE=1.0D-08   THRD=3.2D-06   THRG=3.2D-06  HFMA2=F  DIIS_START=2   DIIS_MAX=10   DIIS_INCORE=F

 Level shifts:    0.00 (CLOSED)    0.00 (OPEN)    0.30 (GAP_MIN)

 ITER           ETOT              DE          GRAD        DDIFF     DIIS  NEXP   TIME(IT)  TIME(TOT)  DIAG
   1     -152.86330910    -152.86330910     0.00D+00     0.18D+00     0     0       0.01      0.02    start
   2     -152.90181787      -0.03850877     0.10D-01     0.22D-01     1     0       0.01      0.03    diag
   3     -152.90701465      -0.00519678     0.38D-02     0.66D-02     2     0       0.01      0.04    diag
   4     -152.90768806      -0.00067341     0.11D-02     0.24D-02     3     0       0.01      0.05    diag
   5     -152.90773801      -0.00004995     0.26D-03     0.57D-03     4     0       0.01      0.06    diag
   6     -152.90774409      -0.00000608     0.85D-04     0.20D-03     5     0       0.01      0.07    diag
   7     -152.90774515      -0.00000106     0.30D-04     0.85D-04     6     0       0.01      0.08    diag
   8     -152.90774528      -0.00000013     0.13D-04     0.34D-04     7     0       0.01      0.09    fixocc
   9     -152.90774530      -0.00000002     0.35D-05     0.12D-04     8     0       0.01      0.10    diag
  10     -152.90774530      -0.00000000     0.12D-05     0.43D-05     9     0       0.01      0.11    diag/orth
  11     -152.90774530      -0.00000000     0.26D-06     0.87D-06     9     0       0.01      0.12    diag
  12     -152.90774530      -0.00000000     0.53D-07     0.12D-06     0     0       0.01      0.13    diag

 Final occupancy:  10   2

 !RHF STATE 1.1 Energy               -152.907745297181
  RHF One-electron energy            -347.148259577416
  RHF Two-electron energy             123.875660217302
  RHF Kinetic energy                  152.756590693666
  RHF Nuclear energy                   70.364854062933
  RHF Virial quotient                  -1.000989512811

 !RHF STATE 1.1 Dipole moment           0.23937855    -0.29442391     0.00000000
 Dipole moment /Debye                   0.60843959    -0.74835093     0.00000000

 Orbital energies:

           1.1          2.1          3.1          4.1          5.1          6.1          7.1          8.1          9.1         10.1
    -20.587824   -11.301485   -11.218310    -1.399890    -1.022322    -0.828560    -0.675706    -0.665374    -0.542029    -0.536783

          11.1         12.1
      0.186232     0.212902

           1.2          2.2          3.2          4.2
     -0.572876    -0.347310     0.194172     0.682227


 HOMO      2.2    -0.347310 =      -9.4508eV
 LUMO     11.1     0.186232 =       5.0676eV
 LUMO-HOMO         0.533543 =      14.5184eV

 Orbitals saved in record  2100.2


 **********************************************************************************************************************************
 DATASETS  * FILE   NREC   LENGTH (MB)   RECORD NAMES
              1      19       33.25       500      610      700      900      950      970     1000      129      960     1100   
                                          VAR    BASINP    GEOM    SYMINP    ZMAT    AOBASIS   BASIS     P2S    ABASIS      S 
                                         1400     1410     1200     1210     1080     1600     1650     1300     1700   
                                           T        V       H0       H01     AOSYM     SMH    MOLCAS    ERIS     OPER   

              2       4        0.52       700     1000      520     2100   
                                         GEOM     BASIS   MCVARS     RHF  

 PROGRAMS   *        TOTAL    HF-SCF       INT
 CPU TIMES  *         1.12      0.13      0.85
 REAL TIME  *         2.97 SEC
 DISK USED  *        46.80 MB
 **********************************************************************************************************************************


 PROGRAM * PAPT (Closed-shell)     Authors: C. Hampel, H.-J. Werner, 1991, P.J. Knowles, 2021


 Convergence thresholds:  THRVAR = 1.00D-08  THRDEN = 1.00D-06

 Number of core orbitals:           3 (   3   0 )
 Number of closed-shell orbitals:   9 (   7   2 )
 Number of external orbitals:      50 (  36  14 )

 Molecular orbitals read from record     2100.2  Type=RHF/CANONICAL  

 Number of N-1 electron functions:               9
 Number of N-2 electron functions:              45
 Number of singly external CSFs:               280
 Number of doubly external CSFs:             53875
 Total number of CSFs:                       54156

 Length of J-op  integral file:               0.00 MB
 Length of K-op  integral file:               0.23 MB

 Integral transformation finished. Total CPU:   0.03 sec, npass=  1  Memory used:   0.20 MW

 Reference energy:                   -152.90774530

                        CORR.ENERGY   TOTAL ENERGY   ENERGY CHANGE
 MP2:                   -0.45648035  -153.36422565    -0.45648035

 SCS-MP2 correlation energy:           -0.44974255   (PS=  1.200000  PT=  0.333333)
 SCS-MP2 total energy:               -153.35748785
 Iteration:   1     0.2940D+00
 Iteration:   2     0.9538D+00
 Iteration:   3     0.1323D+00
 Iteration:   4     0.1022D+00
 Iteration:   5     0.2189D+00
 Iteration:   6     0.3867D-01
 Iteration:   7     0.1092D+00
 Iteration:   8     0.1802D-01
 Iteration:   9     0.2023D-01
 Iteration:  10     0.1124D-01
 Iteration:  11     0.3635D-02
 Iteration:  12     0.1928D+00
 Iteration:  13     0.8456D-03
 Iteration:  14     0.1411D-02
 Iteration:  15     0.3582D-03
 Iteration:  16     0.3552D-03
 Iteration:  17     0.3946D-03
 Iteration:  18     0.9821D-04
 PAPT operator written to  7000.1
 PAPT orbitals and eigenvalues written to  7000.2

 MP3(D):                -0.47872348  -153.38646878    -0.02224313



 RESULTS
 =======

  Reference energy                   -152.907745297181
  MP3 singlet pair energy              -0.320345423887
  MP3 triplet pair energy              -0.158378057010
  MP3 correlation energy               -0.478723480897

 !MP3 total energy                   -153.386468778078

 Timing summary (sec):

 STEP                 CPU(USER)    SYS     CPU(TOT)    WALL
 Transformation          0.03      0.01      0.04      0.25
 CCSD iterations         1.78      0.03      1.81      0.67

 Program statistics:

 Available memory in ccsd:               805306034
 Min. memory needed in ccsd:                179883
 Max. memory used in ccsd:                  220979
 Max. memory used in cckext:                270889 ( 1 integral passes)



 **********************************************************************************************************************************
 DATASETS  * FILE   NREC   LENGTH (MB)   RECORD NAMES
              1      21       34.39       500      610      700      900      950      970     1000      129      960     1100   
                                          VAR    BASINP    GEOM    SYMINP    ZMAT    AOBASIS   BASIS     P2S    ABASIS      S 
                                         1400     1410     1200     1210     1080     1600     1650     1300     1700     1380   
                                           T        V       H0       H01     AOSYM     SMH    MOLCAS    ERIS     OPER     JKOP   
                                         7000   
                                        PAPT AO    

              2       5        0.67       700     1000      520     2100     7000   
                                         GEOM     BASIS   MCVARS     RHF     PAPT   

 PROGRAMS   *        TOTAL      PAPT    HF-SCF       INT
 CPU TIMES  *         1.45      0.33      0.13      0.85
 REAL TIME  *         3.95 SEC
 DISK USED  *        46.80 MB
 **********************************************************************************************************************************


 PROGRAM * MP2 (Closed-shell)     Authors: C. Hampel, H.-J. Werner, 1991, M. Deegan, P.J. Knowles, 1992


 Convergence thresholds:  THRVAR = 1.00D-08  THRDEN = 1.00D-06

 Number of core orbitals:           3 (   3   0 )
 Number of closed-shell orbitals:   9 (   7   2 )
 Number of external orbitals:      50 (  36  14 )

 Molecular orbitals read from record     7000.2  Type=PAPT/CANONICAL (state 1.1)

 Number of N-1 electron functions:               9
 Number of N-2 electron functions:              45
 Number of singly external CSFs:               280
 Number of doubly external CSFs:             53875
 Total number of CSFs:                       54156

 Length of J-op  integral file:               0.00 MB
 Length of K-op  integral file:               0.23 MB

 Integral transformation finished. Total CPU:   0.02 sec, npass=  1  Memory used:   0.20 MW
 Orbital energies read from record       7000.2  Type=PAPT/CANONICAL (state 1.1)

 Memory needed for MP2:                      0.01 MW

 SCS-MP2 correlation energy:           -0.479254981594   (PS=  1.200000  PT=  0.333333)
 SCS-MP2 total energy:               -153.387000278775


  Reference energy                   -152.907745297181
  MP2 singlet pair energy              -0.308700751476
  MP2 triplet pair energy              -0.174879771143
  MP2 correlation energy               -0.483580522620

 !MP2 total energy                   -153.391325819801


 **********************************************************************************************************************************
 DATASETS  * FILE   NREC   LENGTH (MB)   RECORD NAMES
              1      21       34.39       500      610      700      900      950      970     1000      129      960     1100   
                                          VAR    BASINP    GEOM    SYMINP    ZMAT    AOBASIS   BASIS     P2S    ABASIS      S 
                                         1400     1410     1200     1210     1080     1600     1650     1300     1700     1380   
                                           T        V       H0       H01     AOSYM     SMH    MOLCAS    ERIS     OPER     JKOP   
                                         7000   
                                        PAPT AO    

              2       5        0.67       700     1000      520     2100     7000   
                                         GEOM     BASIS   MCVARS     RHF     PAPT   

 PROGRAMS   *        TOTAL       MP2      PAPT    HF-SCF       INT
 CPU TIMES  *         1.56      0.10      0.33      0.13      0.85
 REAL TIME  *         4.43 SEC
 DISK USED  *        46.80 MB
 **********************************************************************************************************************************

 Dump information in style XML to xml output                                                                      

 Orbitals will not be exported.

 **********************************************************************************************************************************

 MP2/cc-pVDZ energy=   -153.391325819801

             MP2            PAPT          HF-SCF
   -153.39132582   -153.38646878   -152.90774530
 **********************************************************************************************************************************
 Molpro calculation terminated
