
 Working directory              : /home/jovyan/scratch/molpro.YB3J91WN52/
 Global scratch directory       : /home/jovyan/scratch/molpro.YB3J91WN52/
 Wavefunction directory         : /home/jovyan/wfu/
 Main file repository           : /home/jovyan/scratch/molpro.YB3J91WN52/

 id        : cardiff

 Nodes                nprocs
 jupyter-c-2efrancisan    1
 GA implementation: MPI file
 GA implementation (serial work in mppx): MPI file

 Using customized tuning parameters: mindgm=1; mindgv=20; mindgc=4; mindgr=1; noblas=0; minvec=7
 default implementation of scratch files=df  


 Variables initialized (1031), CPU time= 0.01 sec
 
 
 
 geometry={
 20
  C    -0.0207058   -0.7667877    0.0000000
  C     0.0207058    0.7667877    0.0000000
  C     0.6956377    1.3103885    1.2529874
  C     0.6956377    1.3103885   -1.2529874
  H    -1.0164326    1.1164572    0.0000000
  C    -0.6956377   -1.3103885   -1.2529874
  C    -0.6956377   -1.3103885    1.2529874
  H     1.0164326   -1.1164572    0.0000000
  H     0.8029041    2.3913793    1.1998404
  H     0.1285111    1.0817107    2.1497585
  H     1.6917129    0.8829484    1.3708423
  H     0.1285111    1.0817107   -2.1497585
  H     0.8029041    2.3913793   -1.1998404
  H     1.6917129    0.8829484   -1.3708423
  H    -0.8029041   -2.3913793    1.1998404
  H    -0.1285111   -1.0817107    2.1497585
  H    -1.6917129   -0.8829484    1.3708423
  H    -0.8029041   -2.3913793   -1.1998404
  H    -1.6917129   -0.8829484   -1.3708423
  H    -0.1285111   -1.0817107   -2.1497585
 }
 basis=cc-pVTZ
 angstrom
 
 
 hf; mp3
 
 
 
 {put,xml;noorbitals,nobasis}
 Commands initialized (841), CPU time= 0.01 sec, 704 directives.
 Default parameters read. Elapsed time= 0.08 sec

 Checking input...
 Passed
1


                                         ***  PROGRAM SYSTEM MOLPRO  ***
                                       Copyright, TTI GmbH Stuttgart, 2015
                                    Version 2023.1 linked Mon Jun  5 13:27:10 2023


 **********************************************************************************************************************************
 LABEL *                                                                                                                                                                 
  (16 PROC) 64 bit serial version                                                        DATE: 03-Aug-23          TIME: 13:16:40  
 **********************************************************************************************************************************

 SHA1:             9738a14712571edd23541b6d7c4f3a3d766f8287
 **********************************************************************************************************************************

 Memory per process:       805 MW
 Total memory per node:   1074 MW
 Total GA space:           268 MW

 GA preallocation disabled
 GA check enabled

 Geometry recognized as XYZ


 Variable memory set to 805.3 MW

 SETTING BASIS          =    CC-PVTZ


 Recomputing integrals since basis changed


 Using spherical harmonics

 Library entry C      S cc-pVTZ              selected for orbital group  1
 Library entry C      P cc-pVTZ              selected for orbital group  1
 Library entry C      D cc-pVTZ              selected for orbital group  1
 Library entry C      F cc-pVTZ              selected for orbital group  1
 Library entry H      S cc-pVTZ              selected for orbital group  2
 Library entry H      P cc-pVTZ              selected for orbital group  2
 Library entry H      D cc-pVTZ              selected for orbital group  2


 PROGRAM * SEWARD (Integral evaluation for generally contracted gaussian basis sets)     Author: Roland Lindh, 1990

 Geometry written to block  1 of record 700


 Point group  C2h 



 ATOMIC COORDINATES

 NR  ATOM    CHARGE       X              Y              Z

   1  C       6.00   -0.039128291   -1.449018749    0.000000000
   2  C       6.00    0.039128291    1.449018749    0.000000000
   3  C       6.00    1.314564735    2.476275382    2.367803024
   4  C       6.00    1.314564735    2.476275382   -2.367803024
   5  C       6.00   -1.314564735   -2.476275382   -2.367803024
   6  C       6.00   -1.314564735   -2.476275382    2.367803024
   7  H       1.00   -1.920779238    2.109798338    0.000000000
   8  H       1.00    1.920779238   -2.109798338    0.000000000
   9  H       1.00    1.517268853    4.519051937    2.267369749
  10  H       1.00    1.517268853    4.519051937   -2.267369749
  11  H       1.00   -1.517268853   -4.519051937    2.267369749
  12  H       1.00   -1.517268853   -4.519051937   -2.267369749
  13  H       1.00    0.242850783    2.044136969    4.062454799
  14  H       1.00    0.242850783    2.044136969   -4.062454799
  15  H       1.00   -0.242850783   -2.044136969    4.062454799
  16  H       1.00   -0.242850783   -2.044136969   -4.062454799
  17  H       1.00    3.196874062    1.668530658    2.590516507
  18  H       1.00    3.196874062    1.668530658   -2.590516507
  19  H       1.00   -3.196874062   -1.668530658    2.590516507
  20  H       1.00   -3.196874062   -1.668530658   -2.590516507

 Bond lengths in Bohr (Angstrom)

 1-2  2.899093898  1-5  2.878972989  1-6  2.878972989  1-8  2.068300556  2-3  2.878972989
     ( 1.534134423)     ( 1.523486897)     ( 1.523486897)     ( 1.094497519)     ( 1.523486897)

  2- 4  2.878972989   2- 7  2.068300556   3- 9  2.055264425   3-13  2.051136037   3-17  2.060374053
       ( 1.523486897)       ( 1.094497519)       ( 1.087599096)       ( 1.085414447)       ( 1.090302995)

  4-10  2.055264425   4-14  2.051136037   4-18  2.060374053   5-12  2.055264425   5-16  2.051136037
       ( 1.087599096)       ( 1.085414447)       ( 1.090302995)       ( 1.087599096)       ( 1.085414447)

  5-20  2.060374053   6-11  2.055264425   6-15  2.051136037   6-19  2.060374053
       ( 1.090302995)       ( 1.087599096)       ( 1.085414447)       ( 1.090302995)

 Bond angles

  1- 2- 3  111.63189875   1- 2- 4  111.63189875   1- 2- 7  107.08464970   1- 5-12  110.98656281

  1- 5-16  111.89191699   1- 5-20  110.71670868   1- 6-11  110.98656281   1- 6-15  111.89191699

  1- 6-19  110.71670868   2- 1- 5  111.63189875   2- 1- 6  111.63189875   2- 1- 8  107.08464970

  2- 3- 9  110.98656281   2- 3-13  111.89191699   2- 3-17  110.71670868   2- 4-10  110.98656281

  2- 4-14  111.89191699   2- 4-18  110.71670868   3- 2- 4  110.66102955   3- 2- 7  107.80666685

  4-2-7  107.80666685   5-1-6  110.66102955   5-1-8  107.80666685   6-1-8  107.80666685

  9- 3-13  107.53618669   9- 3-17  107.74823130  10- 4-14  107.53618669  10- 4-18  107.74823130

 11- 6-15  107.53618669  11- 6-19  107.74823130  12- 5-16  107.53618669  12- 5-20  107.74823130

 13- 3-17  107.78457437  14- 4-18  107.78457437  15- 6-19  107.78457437  16- 5-20  107.78457437

 NUCLEAR CHARGE:                   50
 NUMBER OF PRIMITIVE AOS:         520
 NUMBER OF SYMMETRY AOS:          476
 NUMBER OF CONTRACTIONS:          376   (  102Ag  +   86Au  +  102Bu  +   86Bg  )
 NUMBER OF INNER CORE ORBITALS:     0   (    0Ag  +    0Au  +    0Bu  +    0Bg  )
 NUMBER OF OUTER CORE ORBITALS:     6   (    2Ag  +    1Au  +    2Bu  +    1Bg  )
 NUMBER OF VALENCE ORBITALS:       38   (   11Ag  +    8Au  +   11Bu  +    8Bg  )


 NUCLEAR REPULSION ENERGY  264.52669409

 Eigenvalues of metric

         1 0.810E-03 0.858E-03 0.114E-02 0.149E-02 0.160E-02 0.218E-02 0.419E-02 0.456E-02
         2 0.570E-03 0.116E-02 0.136E-02 0.153E-02 0.223E-02 0.467E-02 0.835E-02 0.941E-02
         3 0.380E-03 0.828E-03 0.106E-02 0.121E-02 0.134E-02 0.164E-02 0.226E-02 0.253E-02
         4 0.865E-03 0.113E-02 0.125E-02 0.145E-02 0.267E-02 0.374E-02 0.615E-02 0.769E-02


 Contracted 2-electron integrals neglected if value below      1.0D-11
