
 Working directory              : /home/jovyan/scratch/molpro.w7R5f9BsHx/
 Global scratch directory       : /home/jovyan/scratch/molpro.w7R5f9BsHx/
 Wavefunction directory         : /home/jovyan/wfu/
 Main file repository           : /home/jovyan/scratch/molpro.w7R5f9BsHx/

 id        : cardiff

 Nodes                nprocs
 jupyter-c-2efrancisan    1
 GA implementation: MPI file
 GA implementation (serial work in mppx): MPI file

 Using customized tuning parameters: mindgm=1; mindgv=20; mindgc=4; mindgr=1; noblas=0; minvec=7
 default implementation of scratch files=df  


 Variables initialized (1031), CPU time= 0.00 sec
 
 
 
 geometry={
 9
  C 0.000000 0.471708 0.000000
  H -0.276412 1.522311 0.000000
  C -1.134329 -0.504429 0.000000
  H -0.776700 -1.534190 0.000000
  H -1.772470 -0.363824 0.876336
  H -1.772470 -0.363824 -0.876336
  C 1.287947 0.151466 0.000000
  H 2.060505 0.908567 0.000000
  H 1.615839 -0.881516 0.000000
 }
 basis=cc-pVTZ
 angstrom
 
 
 hf; papt;mp2
 
 
 
 {put,xml;noorbitals,nobasis}
 Commands initialized (841), CPU time= 0.01 sec, 704 directives.
 Default parameters read. Elapsed time= 0.09 sec

 Checking input...
 Passed
1


                                         ***  PROGRAM SYSTEM MOLPRO  ***
                                       Copyright, TTI GmbH Stuttgart, 2015
                                    Version 2023.1 linked Mon Jun  5 13:27:10 2023


 **********************************************************************************************************************************
 LABEL *                                                                                                                                                                 
  (16 PROC) 64 bit serial version                                                        DATE: 02-Aug-23          TIME: 15:43:05  
 **********************************************************************************************************************************

 SHA1:             9738a14712571edd23541b6d7c4f3a3d766f8287
 **********************************************************************************************************************************

 Memory per process:       805 MW
 Total memory per node:   1074 MW
 Total GA space:           268 MW

 GA preallocation disabled
 GA check enabled

 Geometry recognized as XYZ


 Variable memory set to 805.3 MW

 SETTING BASIS          =    CC-PVTZ


 Recomputing integrals since basis changed


 Using spherical harmonics

 Library entry C      S cc-pVTZ              selected for orbital group  1
 Library entry C      P cc-pVTZ              selected for orbital group  1
 Library entry C      D cc-pVTZ              selected for orbital group  1
 Library entry C      F cc-pVTZ              selected for orbital group  1
 Library entry H      S cc-pVTZ              selected for orbital group  2
 Library entry H      P cc-pVTZ              selected for orbital group  2
 Library entry H      D cc-pVTZ              selected for orbital group  2


 PROGRAM * SEWARD (Integral evaluation for generally contracted gaussian basis sets)     Author: Roland Lindh, 1990

 Geometry written to block  1 of record 700


 Point group  Cs  



 ATOMIC COORDINATES

 NR  ATOM    CHARGE       X              Y              Z

   1  C       6.00    0.000000000    0.891398931    0.000000000
   2  H       1.00   -0.522342978    2.876750867    0.000000000
   3  C       6.00   -2.143571145   -0.953232659    0.000000000
   4  H       1.00   -1.467750281   -2.899198923    0.000000000
   5  H       1.00   -3.349482864   -0.687527718    1.656035033
   6  H       1.00   -3.349482864   -0.687527718   -1.656035033
   7  C       6.00    2.433867093    0.286229257    0.000000000
   8  H       1.00    3.893790128    1.716942796    0.000000000
   9  H       1.00    3.053493171   -1.665823814    0.000000000

 Bond lengths in Bohr (Angstrom)

 1-2  2.052916095  1-3  2.827996280  1-7  2.507975151  3-4  2.059980228  3-5  2.065738178
     ( 1.086356414)     ( 1.496511184)     ( 1.327163296)     ( 1.090094592)     ( 1.093141568)

 3-6  2.065738178  7-8  2.044093075  7-9  2.048035076
     ( 1.093141568)     ( 1.081687472)     ( 1.083773489)

 Bond angles

  1-3-4  111.56158910   1-3-5  111.01344925   1-3-6  111.01344925   1-7-8  121.61577775

  1-7-9  121.57379183   2-1-3  115.97297962   2-1-7  118.70354514   3-1-7  125.32347524

  4-3-5  108.24152514   4-3-6  108.24152514   5-3-6  106.57925455   8-7-9  116.81043042

 NUCLEAR CHARGE:                   24
 NUMBER OF PRIMITIVE AOS:         243
 NUMBER OF SYMMETRY AOS:          222
 NUMBER OF CONTRACTIONS:          174   (  114A'  +   60A"  )
 NUMBER OF INNER CORE ORBITALS:     0   (    0A'  +    0A"  )
 NUMBER OF OUTER CORE ORBITALS:     3   (    3A'  +    0A"  )
 NUMBER OF VALENCE ORBITALS:       18   (   14A'  +    4A"  )


 NUCLEAR REPULSION ENERGY   70.88807056


 Eigenvalues of metric

         1 0.536E-03 0.861E-03 0.113E-02 0.126E-02 0.134E-02 0.141E-02 0.162E-02 0.182E-02
         2 0.177E-02 0.992E-02 0.183E-01 0.200E-01 0.214E-01 0.334E-01 0.377E-01 0.494E-01


 Contracted 2-electron integrals neglected if value below      1.0D-11
 AO integral compression algorithm  1   Integral accuracy      1.0D-11

     250.610 MB (compressed) written to integral file ( 47.7%)


 NUMBER OF SORTED TWO-ELECTRON INTEGRALS:   59149605.     BUFFER LENGTH:  32768
 NUMBER OF SEGMENTS:   4  SEGMENT LENGTH:   15997996      RECORD LENGTH: 524288

 Memory used in sort:      16.56 MW

 SORT1 READ    65606991. AND WROTE    55620870. INTEGRALS IN    162 RECORDS. CPU TIME:     1.00 SEC, REAL TIME:     1.56 SEC
 SORT2 READ    55620870. AND WROTE    59149605. INTEGRALS IN    956 RECORDS. CPU TIME:     1.27 SEC, REAL TIME:     1.64 SEC

 FILE SIZES:   FILE 1:   281.6 MBYTE,  FILE 4:   679.5 MBYTE,   TOTAL:    961.1 MBYTE

 OPERATOR DM      FOR CENTER  0  COORDINATES:    0.000000    0.000000    0.000000


 **********************************************************************************************************************************
 DATASETS  * FILE   NREC   LENGTH (MB)   RECORD NAMES
              1      19      250.01       500      610      700      900      950      970     1000      129      960     1100   
                                          VAR    BASINP    GEOM    SYMINP    ZMAT    AOBASIS   BASIS     P2S    ABASIS      S 
                                         1400     1410     1200     1210     1080     1600     1650     1300     1700   
                                           T        V       H0       H01     AOSYM     SMH    MOLCAS    ERIS     OPER   

 PROGRAMS   *        TOTAL       INT
 CPU TIMES  *         9.86      9.72
 REAL TIME  *        12.50 SEC
 DISK USED  *       917.09 MB
 **********************************************************************************************************************************


 Program * Restricted Hartree-Fock

 Orbital guess generated from atomic densities. Full valence occupancy:   17   4

 Initial occupancy:  10   2

 NELEC=   24   SYM=1   MS2= 0   THRE=1.0D-08   THRD=3.2D-06   THRG=3.2D-06  HFMA2=F  DIIS_START=2   DIIS_MAX=10   DIIS_INCORE=F

 Level shifts:    0.00 (CLOSED)    0.00 (OPEN)    0.30 (GAP_MIN)

 ITER           ETOT              DE          GRAD        DDIFF     DIIS  NEXP   TIME(IT)  TIME(TOT)  DIAG
   1     -117.07536239    -117.07536239     0.00D+00     0.73D-01     0     0       0.47      0.92    start
   2     -117.11160545      -0.03624306     0.47D-02     0.69D-02     1     0       0.46      1.38    diag
   3     -117.11588064      -0.00427519     0.18D-02     0.19D-02     2     0       0.46      1.84    diag
   4     -117.11651596      -0.00063532     0.52D-03     0.78D-03     3     0       0.45      2.29    diag
   5     -117.11652856      -0.00001261     0.68D-04     0.15D-03     4     0       0.47      2.76    diag
   6     -117.11652930      -0.00000074     0.22D-04     0.34D-04     5     0       0.47      3.23    diag
   7     -117.11652939      -0.00000009     0.56D-05     0.11D-04     6     0       0.45      3.68    diag
   8     -117.11652941      -0.00000001     0.23D-05     0.36D-05     7     0       0.47      4.15    fixocc
   9     -117.11652941      -0.00000000     0.71D-06     0.14D-05     8     0       0.45      4.60    diag
  10     -117.11652941      -0.00000000     0.30D-06     0.47D-06     0     0       0.47      5.07    diag/orth

 Final occupancy:  10   2

 !RHF STATE 1.1 Energy               -117.116529407680
  RHF One-electron energy            -296.845512865769
  RHF Two-electron energy             108.840912903067
  RHF Kinetic energy                  116.970258971762
  RHF Nuclear energy                   70.888070555023
  RHF Virial quotient                  -1.001250492537

 !RHF STATE 1.1 Dipole moment          -0.15408583    -0.01285211     0.00000000
 Dipole moment /Debye                  -0.39164710    -0.03266681     0.00000000

 Orbital energies:

           1.1          2.1          3.1          4.1          5.1          6.1          7.1          8.1          9.1         10.1
    -11.231696   -11.220707   -11.214882    -1.064389    -0.932939    -0.756588    -0.638630    -0.583245    -0.523354    -0.489405

          11.1         12.1
      0.147447     0.178453

           1.2          2.2          3.2          4.2
     -0.566485    -0.359518     0.166072     0.219798


 HOMO      2.2    -0.359518 =      -9.7830eV
 LUMO     11.1     0.147447 =       4.0122eV
 LUMO-HOMO         0.506966 =      13.7952eV

 Orbitals saved in record  2100.2


 **********************************************************************************************************************************
 DATASETS  * FILE   NREC   LENGTH (MB)   RECORD NAMES
              1      19      250.01       500      610      700      900      950      970     1000      129      960     1100   
                                          VAR    BASINP    GEOM    SYMINP    ZMAT    AOBASIS   BASIS     P2S    ABASIS      S 
                                         1400     1410     1200     1210     1080     1600     1650     1300     1700   
                                           T        V       H0       H01     AOSYM     SMH    MOLCAS    ERIS     OPER   

              2       4        0.79       700     1000      520     2100   
                                         GEOM     BASIS   MCVARS     RHF  

 PROGRAMS   *        TOTAL    HF-SCF       INT
 CPU TIMES  *        14.93      5.07      9.72
 REAL TIME  *        19.26 SEC
 DISK USED  *       917.09 MB
 **********************************************************************************************************************************


 PROGRAM * PAPT (Closed-shell)     Authors: C. Hampel, H.-J. Werner, 1991, P.J. Knowles, 2021


 Convergence thresholds:  THRVAR = 1.00D-08  THRDEN = 1.00D-06

 Number of core orbitals:           3 (   3   0 )
 Number of closed-shell orbitals:   9 (   7   2 )
 Number of external orbitals:     162 ( 104  58 )

 Molecular orbitals read from record     2100.2  Type=RHF/CANONICAL  

 Number of N-1 electron functions:               9
 Number of N-2 electron functions:              45
 Number of singly external CSFs:               844
 Number of doubly external CSFs:            545395
 Total number of CSFs:                      546240

 Length of J-op  integral file:               0.00 MB
 Length of K-op  integral file:               1.20 MB

 Integral transformation finished. Total CPU:   0.83 sec, npass=  1  Memory used:   0.92 MW

 Reference energy:                   -117.11652941

                        CORR.ENERGY   TOTAL ENERGY   ENERGY CHANGE
 MP2:                   -0.50922976  -117.62575917    -0.50922976

 SCS-MP2 correlation energy:           -0.51536898   (PS=  1.200000  PT=  0.333333)
 SCS-MP2 total energy:               -117.63189839
 Iteration:   1     0.2649D+00
 Iteration:   2     0.3419D+00
 Iteration:   3     0.9502D-01
 Iteration:   4     0.9949D-01
 Iteration:   5     0.5700D-01
 Iteration:   6     0.2556D-01
 Iteration:   7     0.1093D+00
 Iteration:   8     0.1322D-01
 Iteration:   9     0.3089D-01
 Iteration:  10     0.6750D-02
 Iteration:  11     0.4988D-02
 Iteration:  12     0.8080D-02
 Iteration:  13     0.1402D-02
 Iteration:  14     0.1818D-02
 Iteration:  15     0.5392D-03
 Iteration:  16     0.2069D-03
 Iteration:  17     0.1311D-02
 Iteration:  18     0.5721D-04
 PAPT operator written to  7000.1
 PAPT orbitals and eigenvalues written to  7000.2

 MP3(D):                -0.54092660  -117.65745600    -0.03169683



 RESULTS
 =======

  Reference energy                   -117.116529407680
  MP3 singlet pair energy              -0.381546056699
  MP3 triplet pair energy              -0.159380539025
  MP3 correlation energy               -0.540926595725

 !MP3 total energy                   -117.657456003404

 Timing summary (sec):

 STEP                 CPU(USER)    SYS     CPU(TOT)    WALL
 Transformation          0.86      0.10      0.96      1.43
 CCSD iterations        18.70      0.21     18.91      3.84

 Program statistics:

 Available memory in ccsd:               805306034
 Min. memory needed in ccsd:               1590037
 Max. memory used in ccsd:                 2055825
 Max. memory used in cckext:               2336335 ( 1 integral passes)



 **********************************************************************************************************************************
 DATASETS  * FILE   NREC   LENGTH (MB)   RECORD NAMES
              1      21      258.44       500      610      700      900      950      970     1000      129      960     1100   
                                          VAR    BASINP    GEOM    SYMINP    ZMAT    AOBASIS   BASIS     P2S    ABASIS      S 
                                         1400     1410     1200     1210     1080     1600     1650     1300     1700     1380   
                                           T        V       H0       H01     AOSYM     SMH    MOLCAS    ERIS     OPER     JKOP   
                                         7000   
                                        PAPT AO    

              2       5        1.27       700     1000      520     2100     7000   
                                         GEOM     BASIS   MCVARS     RHF     PAPT   

 PROGRAMS   *        TOTAL      PAPT    HF-SCF       INT
 CPU TIMES  *        19.26      4.32      5.07      9.72
 REAL TIME  *        24.58 SEC
 DISK USED  *       917.09 MB
 **********************************************************************************************************************************


 PROGRAM * MP2 (Closed-shell)     Authors: C. Hampel, H.-J. Werner, 1991, M. Deegan, P.J. Knowles, 1992


 Convergence thresholds:  THRVAR = 1.00D-08  THRDEN = 1.00D-06

 Number of core orbitals:           3 (   3   0 )
 Number of closed-shell orbitals:   9 (   7   2 )
 Number of external orbitals:     162 ( 104  58 )

 Molecular orbitals read from record     7000.2  Type=PAPT/CANONICAL (state 1.1)

 Number of N-1 electron functions:               9
 Number of N-2 electron functions:              45
 Number of singly external CSFs:               844
 Number of doubly external CSFs:            545395
 Total number of CSFs:                      546240

 Length of J-op  integral file:               0.00 MB
 Length of K-op  integral file:               1.20 MB

 Integral transformation finished. Total CPU:   0.80 sec, npass=  1  Memory used:   0.92 MW
 Orbital energies read from record       7000.2  Type=PAPT/CANONICAL (state 1.1)

 Memory needed for MP2:                      0.08 MW

 SCS-MP2 correlation energy:           -0.556902319696   (PS=  1.200000  PT=  0.333333)
 SCS-MP2 total energy:               -117.673431727376


  Reference energy                   -117.116529407680
  MP2 singlet pair energy              -0.374062304707
  MP2 triplet pair energy              -0.173615711863
  MP2 correlation energy               -0.547678016570

 !MP2 total energy                   -117.664207424249


 **********************************************************************************************************************************
 DATASETS  * FILE   NREC   LENGTH (MB)   RECORD NAMES
              1      21      258.44       500      610      700      900      950      970     1000      129      960     1100   
                                          VAR    BASINP    GEOM    SYMINP    ZMAT    AOBASIS   BASIS     P2S    ABASIS      S 
                                         1400     1410     1200     1210     1080     1600     1650     1300     1700     1380   
                                           T        V       H0       H01     AOSYM     SMH    MOLCAS    ERIS     OPER     JKOP   
                                         7000   
                                        PAPT AO    

              2       5        1.27       700     1000      520     2100     7000   
                                         GEOM     BASIS   MCVARS     RHF     PAPT   

 PROGRAMS   *        TOTAL       MP2      PAPT    HF-SCF       INT
 CPU TIMES  *        20.62      1.37      4.32      5.07      9.72
 REAL TIME  *        26.38 SEC
 DISK USED  *       917.09 MB
 **********************************************************************************************************************************

 Dump information in style XML to xml output                                                                      

 Orbitals will not be exported.

 **********************************************************************************************************************************

 MP2/cc-pVTZ energy=   -117.664207424249

             MP2            PAPT          HF-SCF
   -117.66420742   -117.65745600   -117.11652941
 **********************************************************************************************************************************
 Molpro calculation terminated
