
 Working directory              : /home/jovyan/scratch/molpro.OSdUgqCwip/
 Global scratch directory       : /home/jovyan/scratch/molpro.OSdUgqCwip/
 Wavefunction directory         : /home/jovyan/wfu/
 Main file repository           : /home/jovyan/scratch/molpro.OSdUgqCwip/

 id        : cardiff

 Nodes                nprocs
 jupyter-c-2efrancisan    1
 GA implementation: MPI file
 GA implementation (serial work in mppx): MPI file

 Using customized tuning parameters: mindgm=1; mindgv=20; mindgc=4; mindgr=1; noblas=0; minvec=7
 default implementation of scratch files=df  


 Variables initialized (1031), CPU time= 0.00 sec
 
 
 
 geometry={
            5
     C          0.00000000      0.00000000      0.06556637
     F          0.00000000      0.00000000     -1.31562859
     H          0.51491633     -0.89186125      0.41668741
     H          0.51491633      0.89186125      0.41668741
     H         -1.02983267      0.00000000      0.41668741
 }
 basis=cc-pVDZ
 angstrom
 
 
 hf; ccsd
 
 
 
 {put,xml;noorbitals,nobasis}
 Commands initialized (841), CPU time= 0.01 sec, 704 directives.
 Default parameters read. Elapsed time= 0.08 sec

 Checking input...
 Passed
1


                                         ***  PROGRAM SYSTEM MOLPRO  ***
                                       Copyright, TTI GmbH Stuttgart, 2015
                                    Version 2023.1 linked Mon Jun  5 13:27:10 2023


 **********************************************************************************************************************************
 LABEL *                                                                                                                                                                 
  (16 PROC) 64 bit serial version                                                        DATE: 02-Aug-23          TIME: 15:50:27  
 **********************************************************************************************************************************

 SHA1:             9738a14712571edd23541b6d7c4f3a3d766f8287
 **********************************************************************************************************************************

 Memory per process:       805 MW
 Total memory per node:   1074 MW
 Total GA space:           268 MW

 GA preallocation disabled
 GA check enabled

 Geometry recognized as XYZ


 Variable memory set to 805.3 MW

 SETTING BASIS          =    CC-PVDZ


 Recomputing integrals since basis changed


 Using spherical harmonics

 Library entry C      S cc-pVDZ              selected for orbital group  1
 Library entry C      P cc-pVDZ              selected for orbital group  1
 Library entry C      D cc-pVDZ              selected for orbital group  1
 Library entry F      S cc-pVDZ              selected for orbital group  2
 Library entry F      P cc-pVDZ              selected for orbital group  2
 Library entry F      D cc-pVDZ              selected for orbital group  2
 Library entry H      S cc-pVDZ              selected for orbital group  3
 Library entry H      P cc-pVDZ              selected for orbital group  3


 PROGRAM * SEWARD (Integral evaluation for generally contracted gaussian basis sets)     Author: Roland Lindh, 1990

 Geometry written to block  1 of record 700


 Point group  Cs  



 ATOMIC COORDINATES

 NR  ATOM    CHARGE       X              Y              Z

   1  C       6.00    0.000000000    0.000000000    0.123902482
   2  F       9.00    0.000000000    0.000000000   -2.486177717
   3  H       1.00    0.973050841   -1.685373504    0.787425084
   4  H       1.00    0.973050841    1.685373504    0.787425084
   5  H       1.00   -1.946101700    0.000000000    0.787425084

 Bond lengths in Bohr (Angstrom)

 1-2  2.610080199  1-3  2.056106522  1-4  2.056106522  1-5  2.056106532
     ( 1.381194960)     ( 1.088044715)     ( 1.088044715)     ( 1.088044720)

 Bond angles

  2-1-3  108.82678959   2-1-4  108.82678959   2-1-5  108.82678949   3-1-4  110.10789247

  3-1-5  110.10789219   4-1-5  110.10789219

 NUCLEAR CHARGE:                   18
 NUMBER OF PRIMITIVE AOS:          75
 NUMBER OF SYMMETRY AOS:           73
 NUMBER OF CONTRACTIONS:           43   (   29A'  +   14A"  )
 NUMBER OF INNER CORE ORBITALS:     0   (    0A'  +    0A"  )
 NUMBER OF OUTER CORE ORBITALS:     2   (    2A'  +    0A"  )
 NUMBER OF VALENCE ORBITALS:       11   (    8A'  +    3A"  )


 NUCLEAR REPULSION ENERGY   37.42306171


 Eigenvalues of metric

         1 0.116E-01 0.239E-01 0.370E-01 0.472E-01 0.497E-01 0.107E+00 0.129E+00 0.134E+00
         2 0.370E-01 0.497E-01 0.129E+00 0.187E+00 0.318E+00 0.500E+00 0.917E+00 0.984E+00


 Contracted 2-electron integrals neglected if value below      1.0D-11
 AO integral compression algorithm  1   Integral accuracy      1.0D-11

     1.311 MB (compressed) written to integral file ( 64.4%)


 NUMBER OF SORTED TWO-ELECTRON INTEGRALS:     237420.     BUFFER LENGTH:  32768
 NUMBER OF SEGMENTS:   1  SEGMENT LENGTH:     237420      RECORD LENGTH: 524288

 Memory used in sort:       0.79 MW

 SORT1 READ      297296. AND WROTE      210304. INTEGRALS IN      1 RECORDS. CPU TIME:     0.00 SEC, REAL TIME:     0.11 SEC
 SORT2 READ      210304. AND WROTE      237420. INTEGRALS IN      5 RECORDS. CPU TIME:     0.02 SEC, REAL TIME:     0.02 SEC

 FILE SIZES:   FILE 1:    31.4 MBYTE,  FILE 4:     4.3 MBYTE,   TOTAL:     35.7 MBYTE

 OPERATOR DM      FOR CENTER  0  COORDINATES:    0.000000    0.000000    0.000000


 **********************************************************************************************************************************
 DATASETS  * FILE   NREC   LENGTH (MB)   RECORD NAMES
              1      19       29.68       500      610      700      900      950      970     1000      129      960     1100   
                                          VAR    BASINP    GEOM    SYMINP    ZMAT    AOBASIS   BASIS     P2S    ABASIS      S 
                                         1400     1410     1200     1210     1080     1600     1650     1300     1700   
                                           T        V       H0       H01     AOSYM     SMH    MOLCAS    ERIS     OPER   

 PROGRAMS   *        TOTAL       INT
 CPU TIMES  *         0.60      0.45
 REAL TIME  *         1.88 SEC
 DISK USED  *        34.41 MB
 **********************************************************************************************************************************


 Program * Restricted Hartree-Fock

 Orbital guess generated from atomic densities. Full valence occupancy:   10   3

 Initial occupancy:   7   2

 NELEC=   18   SYM=1   MS2= 0   THRE=1.0D-08   THRD=3.2D-06   THRG=3.2D-06  HFMA2=F  DIIS_START=2   DIIS_MAX=10   DIIS_INCORE=F

 Level shifts:    0.00 (CLOSED)    0.00 (OPEN)    0.30 (GAP_MIN)

 ITER           ETOT              DE          GRAD        DDIFF     DIIS  NEXP   TIME(IT)  TIME(TOT)  DIAG
   1     -139.02080035    -139.02080035     0.00D+00     0.24D+00     0     0       0.00      0.00    start
   2     -139.04051972      -0.01971937     0.12D-01     0.24D-01     1     0       0.01      0.01    diag
   3     -139.04465981      -0.00414009     0.59D-02     0.76D-02     2     0       0.00      0.01    diag
   4     -139.04496185      -0.00030204     0.12D-02     0.24D-02     3     0       0.00      0.01    diag
   5     -139.04497487      -0.00001302     0.23D-03     0.60D-03     4     0       0.01      0.02    diag
   6     -139.04497553      -0.00000066     0.46D-04     0.10D-03     5     0       0.00      0.02    diag
   7     -139.04497558      -0.00000005     0.13D-04     0.36D-04     6     0       0.00      0.02    diag
   8     -139.04497558      -0.00000000     0.31D-05     0.92D-05     7     0       0.00      0.02    fixocc
   9     -139.04497558      -0.00000000     0.35D-06     0.13D-05     8     0       0.01      0.03    diag
  10     -139.04497558      -0.00000000     0.37D-07     0.12D-06     0     0       0.00      0.03    diag/orth

 Final occupancy:   7   2

 !RHF STATE 1.1 Energy               -139.044975582467
  RHF One-electron energy            -266.544643206814
  RHF Two-electron energy              90.076605911307
  RHF Kinetic energy                  138.994374091181
  RHF Nuclear energy                   37.423061713039
  RHF Virial quotient                  -1.000364054240

 !RHF STATE 1.1 Dipole moment           0.00000000     0.00000000     0.82714263
 Dipole moment /Debye                   0.00000000     0.00000000     2.10238687

 Orbital energies:

           1.1          2.1          3.1          4.1          5.1          6.1          7.1          8.1          9.1
    -26.268559   -11.309358    -1.579757    -0.952110    -0.687208    -0.663883    -0.523816     0.188983     0.257401

           1.2          2.2          3.2          4.2
     -0.687208    -0.523816     0.257401     0.615416


 HOMO      7.1    -0.523816 =     -14.2537eV
 LUMO      8.1     0.188983 =       5.1425eV
 LUMO-HOMO         0.712798 =      19.3962eV

 Orbitals saved in record  2100.2


 **********************************************************************************************************************************
 DATASETS  * FILE   NREC   LENGTH (MB)   RECORD NAMES
              1      19       29.68       500      610      700      900      950      970     1000      129      960     1100   
                                          VAR    BASINP    GEOM    SYMINP    ZMAT    AOBASIS   BASIS     P2S    ABASIS      S 
                                         1400     1410     1200     1210     1080     1600     1650     1300     1700   
                                           T        V       H0       H01     AOSYM     SMH    MOLCAS    ERIS     OPER   

              2       4        0.46       700     1000      520     2100   
                                         GEOM     BASIS   MCVARS     RHF  

 PROGRAMS   *        TOTAL    HF-SCF       INT
 CPU TIMES  *         0.63      0.03      0.45
 REAL TIME  *         1.92 SEC
 DISK USED  *        34.41 MB
 **********************************************************************************************************************************


 PROGRAM * CCSD (Closed-shell coupled cluster)     Authors: C. Hampel, H.-J. Werner, 1991, M. Deegan, P.J. Knowles, 1992


 Convergence thresholds:  THRVAR = 1.00D-08  THRDEN = 1.00D-06

 Number of core orbitals:           2 (   2   0 )
 Number of closed-shell orbitals:   7 (   5   2 )
 Number of external orbitals:      34 (  22  12 )

 Molecular orbitals read from record     2100.2  Type=RHF/CANONICAL  

 Number of N-1 electron functions:               7
 Number of N-2 electron functions:              28
 Number of singly external CSFs:               134
 Number of doubly external CSFs:             14505
 Total number of CSFs:                       14640

 Length of J-op  integral file:               0.00 MB
 Length of K-op  integral file:               0.13 MB
 Length of 3-ext integral record:             0.00 MB

 Integral transformation finished. Total CPU:   0.00 sec, npass=  1  Memory used:   0.19 MW

 Reference energy:                   -139.04497558

 MP2 singlet pair energy:              -0.21349212
 MP2 triplet pair energy:              -0.12017333
 MP2 correlation energy:               -0.33366545
 MP2 total energy:                   -139.37864104

 SCS-MP2 correlation energy:           -0.33096506   (PS=  1.200000  PT=  0.333333)
 SCS-MP2 total energy:               -139.37594065

 ITER.      SQ.NORM     CORR.ENERGY   TOTAL ENERGY   ENERGY CHANGE        DEN1      VAR(S)    VAR(P)  DIIS     TIME  TIME/IT
   1      1.09366675    -0.35393559  -139.39891117    -0.02027013    -0.01164433  0.13D-02  0.15D-02  1  1     0.94     0.02
   2      1.10107480    -0.35527749  -139.40025307    -0.00134190    -0.00852040  0.31D-04  0.18D-03  2  2     0.96     0.02
   3      1.10307440    -0.35547728  -139.40045286    -0.00019980    -0.00128294  0.14D-04  0.85D-05  3  3     0.97     0.02
   4      1.10361949    -0.35544628  -139.40042186     0.00003100    -0.00028041  0.36D-06  0.76D-06  4  4     0.99     0.02
   5      1.10373815    -0.35544097  -139.40041656     0.00000531    -0.00004235  0.78D-07  0.48D-07  5  5     1.01     0.02
   6      1.10375808    -0.35544039  -139.40041597     0.00000058    -0.00000368  0.67D-08  0.38D-08  6  6     1.03     0.02
   7      1.10376143    -0.35543968  -139.40041526     0.00000071     0.00000003  0.51D-09  0.33D-09  6  1     1.04     0.02

 Norm of t1 vector:      0.04712885      S-energy:    -0.00000051      T1 diagnostic:  0.00890652
                                                                       D1 diagnostic:  0.02323743
                                                                       D2 diagnostic:  0.13194434 (internal)


 RESULTS
 =======

  Reference energy                   -139.044975582467
  CCSD singlet pair energy             -0.246051046568
  CCSD triplet pair energy             -0.109388123547
  CCSD correlation energy              -0.355439681335

 !CCSD total energy                  -139.400415263802

 Timing summary (sec):

 STEP                 CPU(USER)    SYS     CPU(TOT)    WALL
 Transformation          0.01      0.00      0.01      0.13
 CCSD iterations         1.04      0.02      1.06      0.16

 Program statistics:

 Available memory in ccsd:               805306165
 Min. memory needed in ccsd:                 55899
 Max. memory used in ccsd:                   65808
 Max. memory used in cckext:                105434 ( 7 integral passes)



 **********************************************************************************************************************************
 DATASETS  * FILE   NREC   LENGTH (MB)   RECORD NAMES
              1      20       30.56       500      610      700      900      950      970     1000      129      960     1100   
                                          VAR    BASINP    GEOM    SYMINP    ZMAT    AOBASIS   BASIS     P2S    ABASIS      S 
                                         1400     1410     1200     1210     1080     1600     1650     1300     1700     1380   
                                           T        V       H0       H01     AOSYM     SMH    MOLCAS    ERIS     OPER     JKOP   

              2       4        0.46       700     1000      520     2100   
                                         GEOM     BASIS   MCVARS     RHF  

 PROGRAMS   *        TOTAL      CCSD    HF-SCF       INT
 CPU TIMES  *         0.81      0.18      0.03      0.45
 REAL TIME  *         2.26 SEC
 DISK USED  *        34.41 MB
 **********************************************************************************************************************************

 Dump information in style XML to xml output                                                                      

 Orbitals will not be exported.

 **********************************************************************************************************************************

 CCSD/cc-pVDZ energy=   -139.400415263802

            CCSD          HF-SCF
   -139.40041526   -139.04497558
 **********************************************************************************************************************************
 Molpro calculation terminated
