
 Working directory              : /home/jovyan/scratch/molpro.hD7FwYfRi5/
 Global scratch directory       : /home/jovyan/scratch/molpro.hD7FwYfRi5/
 Wavefunction directory         : /home/jovyan/wfu/
 Main file repository           : /home/jovyan/scratch/molpro.hD7FwYfRi5/

 id        : cardiff

 Nodes                nprocs
 jupyter-c-2efrancisan    1
 GA implementation: MPI file
 GA implementation (serial work in mppx): MPI file

 Using customized tuning parameters: mindgm=1; mindgv=20; mindgc=4; mindgr=1; noblas=0; minvec=7
 default implementation of scratch files=df  


 Variables initialized (1031), CPU time= 0.00 sec
 
 
 
 geometry={
 6
  2H2OTS (Full point group C2h)
  O 0.000000 1.098108 0.000000
  H 0.000000 0.000000 0.596495
  H 0.000000 0.000000 -0.596495
  O 0.000000 -1.098108 0.000000
  H 0.867311 1.517487 0.000000
  H -0.867311 -1.517487 0.000000
 }
 basis=cc-pVDZ
 angstrom
 
 
 hf; papt;mp2
 
 
 
 {put,xml;noorbitals,nobasis}
 Commands initialized (841), CPU time= 0.01 sec, 704 directives.
 Default parameters read. Elapsed time= 0.08 sec

 Checking input...
 Passed
1


                                         ***  PROGRAM SYSTEM MOLPRO  ***
                                       Copyright, TTI GmbH Stuttgart, 2015
                                    Version 2023.1 linked Mon Jun  5 13:27:10 2023


 **********************************************************************************************************************************
 LABEL *                                                                                                                                                                 
  (16 PROC) 64 bit serial version                                                        DATE: 03-Aug-23          TIME: 13:08:00  
 **********************************************************************************************************************************

 SHA1:             9738a14712571edd23541b6d7c4f3a3d766f8287
 **********************************************************************************************************************************

 Memory per process:       805 MW
 Total memory per node:   1074 MW
 Total GA space:           268 MW

 GA preallocation disabled
 GA check enabled

 Geometry recognized as XYZ


 Variable memory set to 805.3 MW

 SETTING BASIS          =    CC-PVDZ


 Recomputing integrals since basis changed


 Using spherical harmonics

 Library entry O      S cc-pVDZ              selected for orbital group  1
 Library entry O      P cc-pVDZ              selected for orbital group  1
 Library entry O      D cc-pVDZ              selected for orbital group  1
 Library entry H      S cc-pVDZ              selected for orbital group  2
 Library entry H      P cc-pVDZ              selected for orbital group  2


 PROGRAM * SEWARD (Integral evaluation for generally contracted gaussian basis sets)     Author: Roland Lindh, 1990

 Geometry written to block  1 of record 700


 Point group  C2h 



 ATOMIC COORDINATES

 NR  ATOM    CHARGE       X              Y              Z

   1  O       8.00    0.000000000    2.075123375    0.000000000
   2  O       8.00    0.000000000   -2.075123375    0.000000000
   3  H       1.00    0.000000000    0.000000000    1.127212185
   4  H       1.00    0.000000000    0.000000000   -1.127212185
   5  H       1.00    1.638980255    2.867634828    0.000000000
   6  H       1.00   -1.638980255   -2.867634828    0.000000000

 Bond lengths in Bohr (Angstrom)

 1-3  2.361513145  1-4  2.361513145  1-5  1.820530329  2-3  2.361513145  2-4  2.361513145
     ( 1.249658939)     ( 1.249658939)     ( 0.963383162)     ( 1.249658939)     ( 1.249658939)

 2-6  1.820530329
     ( 0.963383162)

 Bond angles

  1-3-2  122.97816098   1-4-2  122.97816098   3-1-4   57.02183902   3-1-5  112.49024921

  3-2-4   57.02183902   3-2-6  112.49024921   4-1-5  112.49024921   4-2-6  112.49024921

 NUCLEAR CHARGE:                   20
 NUMBER OF PRIMITIVE AOS:          82
 NUMBER OF SYMMETRY AOS:           80
 NUMBER OF CONTRACTIONS:           48   (   17Ag  +    8Au  +   16Bu  +    7Bg  )
 NUMBER OF INNER CORE ORBITALS:     0   (    0Ag  +    0Au  +    0Bu  +    0Bg  )
 NUMBER OF OUTER CORE ORBITALS:     2   (    1Ag  +    0Au  +    1Bu  +    0Bg  )
 NUMBER OF VALENCE ORBITALS:       12   (    5Ag  +    2Au  +    4Bu  +    1Bg  )


 NUCLEAR REPULSION ENERGY   42.57367525

 Eigenvalues of metric

         1 0.157E-01 0.425E-01 0.595E-01 0.801E-01 0.163E+00 0.210E+00 0.362E+00 0.578E+00
         2 0.549E-01 0.103E+00 0.227E+00 0.533E+00 0.730E+00 0.102E+01 0.126E+01 0.252E+01
         3 0.171E-01 0.464E-01 0.958E-01 0.163E+00 0.191E+00 0.282E+00 0.541E+00 0.759E+00
         4 0.161E+00 0.323E+00 0.570E+00 0.796E+00 0.112E+01 0.138E+01 0.222E+01


 Contracted 2-electron integrals neglected if value below      1.0D-11
 AO integral compression algorithm  1   Integral accuracy      1.0D-11

     1.311 MB (compressed) written to integral file ( 52.9%)


 NUMBER OF SORTED TWO-ELECTRON INTEGRALS:     188801.     BUFFER LENGTH:  32768
 NUMBER OF SEGMENTS:   1  SEGMENT LENGTH:     188801      RECORD LENGTH: 524288

 Memory used in sort:       0.75 MW

 SORT1 READ      270188. AND WROTE      154093. INTEGRALS IN      1 RECORDS. CPU TIME:     0.01 SEC, REAL TIME:     0.01 SEC
 SORT2 READ      154093. AND WROTE      188801. INTEGRALS IN      5 RECORDS. CPU TIME:     0.02 SEC, REAL TIME:     0.03 SEC

 FILE SIZES:   FILE 1:    31.4 MBYTE,  FILE 4:     4.3 MBYTE,   TOTAL:     35.7 MBYTE

 OPERATOR DM      FOR CENTER  0  COORDINATES:    0.000000    0.000000    0.000000


 **********************************************************************************************************************************
 DATASETS  * FILE   NREC   LENGTH (MB)   RECORD NAMES
              1      19       29.49       500      610      700      900      950      970     1000      129      960     1100   
                                          VAR    BASINP    GEOM    SYMINP    ZMAT    AOBASIS   BASIS     P2S    ABASIS      S 
                                         1400     1410     1200     1210     1080     1600     1650     1300     1700   
                                           T        V       H0       H01     AOSYM     SMH    MOLCAS    ERIS     OPER   

 PROGRAMS   *        TOTAL       INT
 CPU TIMES  *         0.58      0.44
 REAL TIME  *         1.75 SEC
 DISK USED  *        34.45 MB
 **********************************************************************************************************************************


 Program * Restricted Hartree-Fock

 Orbital guess generated from atomic densities. Full valence occupancy:    6   2   5   1

 Initial occupancy:   4   1   4   1

 NELEC=   20   SYM=1   MS2= 0   THRE=1.0D-08   THRD=3.2D-06   THRG=3.2D-06  HFMA2=F  DIIS_START=2   DIIS_MAX=10   DIIS_INCORE=F

 Level shifts:    0.00 (CLOSED)    0.00 (OPEN)    0.30 (GAP_MIN)

 ITER           ETOT              DE          GRAD        DDIFF     DIIS  NEXP   TIME(IT)  TIME(TOT)  DIAG
   1     -151.90148972    -151.90148972     0.00D+00     0.31D+00     0     0       0.00      0.01    start
   2     -151.94683927      -0.04534955     0.25D-01     0.50D-01     1     0       0.00      0.01    diag
   3     -151.95932384      -0.01248457     0.13D-01     0.17D-01     2     0       0.00      0.01    diag
   4     -151.95964475      -0.00032091     0.15D-02     0.28D-02     3     0       0.00      0.01    diag
   5     -151.95966638      -0.00002163     0.34D-03     0.75D-03     4     0       0.01      0.02    diag
   6     -151.95966746      -0.00000108     0.67D-04     0.16D-03     5     0       0.00      0.02    diag
   7     -151.95966750      -0.00000004     0.14D-04     0.32D-04     6     0       0.00      0.02    diag
   8     -151.95966750      -0.00000000     0.29D-05     0.78D-05     7     0       0.00      0.02    fixocc
   9     -151.95966750      -0.00000000     0.44D-06     0.10D-05     8     0       0.00      0.02    diag
  10     -151.95966750      -0.00000000     0.65D-07     0.12D-06     0     0       0.00      0.02    diag/orth

 Final occupancy:   4   1   4   1

 !RHF STATE 1.1 Energy               -151.959667499542
  RHF One-electron energy            -294.580766871516
  RHF Two-electron energy             100.047424125153
  RHF Kinetic energy                  151.836510288718
  RHF Nuclear energy                   42.573675246821
  RHF Virial quotient                  -1.000811117238

 !RHF STATE 1.1 Dipole moment           0.00000000     0.00000000     0.00000000
 Dipole moment /Debye                   0.00000000     0.00000000     0.00000000

 Orbital energies:

           1.1          2.1          3.1          4.1          5.1          6.1
    -20.550964    -1.371153    -0.780970    -0.553952     0.178780     0.322740

           1.2          2.2          3.2
     -0.592626     0.282265     0.635412

           1.3          2.3          3.3          4.3          5.3          6.3
    -20.551009    -1.283042    -0.635348    -0.455040     0.226123     0.738502

           1.4          2.4          3.4
     -0.468855     1.208620     1.476899


 HOMO      4.3    -0.455040 =     -12.3823eV
 LUMO      5.1     0.178780 =       4.8648eV
 LUMO-HOMO         0.633819 =      17.2471eV

 Orbitals saved in record  2100.2


 **********************************************************************************************************************************
 DATASETS  * FILE   NREC   LENGTH (MB)   RECORD NAMES
              1      19       29.49       500      610      700      900      950      970     1000      129      960     1100   
                                          VAR    BASINP    GEOM    SYMINP    ZMAT    AOBASIS   BASIS     P2S    ABASIS      S 
                                         1400     1410     1200     1210     1080     1600     1650     1300     1700   
                                           T        V       H0       H01     AOSYM     SMH    MOLCAS    ERIS     OPER   

              2       4        0.47       700     1000      520     2100   
                                         GEOM     BASIS   MCVARS     RHF  

 PROGRAMS   *        TOTAL    HF-SCF       INT
 CPU TIMES  *         0.61      0.03      0.44
 REAL TIME  *         1.79 SEC
 DISK USED  *        34.45 MB
 **********************************************************************************************************************************


 PROGRAM * PAPT (Closed-shell)     Authors: C. Hampel, H.-J. Werner, 1991, P.J. Knowles, 2021


 Convergence thresholds:  THRVAR = 1.00D-08  THRDEN = 1.00D-06

 Number of core orbitals:           2 (   1   0   1   0 )
 Number of closed-shell orbitals:   8 (   3   1   3   1 )
 Number of external orbitals:      38 (  13   7  12   6 )

 Molecular orbitals read from record     2100.2  Type=RHF/CANONICAL  

 Number of N-1 electron functions:               8
 Number of N-2 electron functions:              36
 Number of singly external CSFs:                88
 Number of doubly external CSFs:             11992
 Total number of CSFs:                       12081

 Length of J-op  integral file:               0.00 MB
 Length of K-op  integral file:               0.11 MB

 Integral transformation finished. Total CPU:   0.00 sec, npass=  1  Memory used:   0.08 MW

 Reference energy:                   -151.95966750

                        CORR.ENERGY   TOTAL ENERGY   ENERGY CHANGE
 MP2:                   -0.43885769  -152.39852519    -0.43885769

 SCS-MP2 correlation energy:           -0.42616338   (PS=  1.200000  PT=  0.333333)
 SCS-MP2 total energy:               -152.38583088
 Iteration:   1     0.2512D+00
 Iteration:   2     0.6071D+00
 Iteration:   3     0.1136D+00
 Iteration:   4     0.7550D-01
 Iteration:   5     0.3914D-01
 Iteration:   6     0.7398D-02
 Iteration:   7     0.2830D-01
 Iteration:   8     0.3846D-02
 Iteration:   9     0.5968D-02
 Iteration:  10     0.1737D-02
 Iteration:  11     0.1366D-02
 Iteration:  12     0.9033D-03
 Iteration:  13     0.3044D-03
 Iteration:  14     0.3812D-02
 Iteration:  15     0.1038D-03
 Iteration:  16     0.5346D-03
 Iteration:  17     0.4666D-04
 PAPT operator written to  7000.1
 PAPT orbitals and eigenvalues written to  7000.2

 MP3(D):                -0.44175627  -152.40142377    -0.00289858



 RESULTS
 =======

  Reference energy                   -151.959667499542
  MP3 singlet pair energy              -0.285435474700
  MP3 triplet pair energy              -0.156320794828
  MP3 correlation energy               -0.441756269528

 !MP3 total energy                   -152.401423769070

 Timing summary (sec):

 STEP                 CPU(USER)    SYS     CPU(TOT)    WALL
 CCSD iterations         0.91      0.01      0.92      0.14

 Program statistics:

 Available memory in ccsd:               805306108
 Min. memory needed in ccsd:                 43191
 Max. memory used in ccsd:                   51779
 Max. memory used in cckext:                 85310 ( 1 integral passes)



 **********************************************************************************************************************************
 DATASETS  * FILE   NREC   LENGTH (MB)   RECORD NAMES
              1      21       29.76       500      610      700      900      950      970     1000      129      960     1100   
                                          VAR    BASINP    GEOM    SYMINP    ZMAT    AOBASIS   BASIS     P2S    ABASIS      S 
                                         1400     1410     1200     1210     1080     1600     1650     1300     1700     1380   
                                           T        V       H0       H01     AOSYM     SMH    MOLCAS    ERIS     OPER     JKOP   
                                         7000   
                                        PAPT AO    

              2       5        0.59       700     1000      520     2100     7000   
                                         GEOM     BASIS   MCVARS     RHF     PAPT   

 PROGRAMS   *        TOTAL      PAPT    HF-SCF       INT
 CPU TIMES  *         0.73      0.12      0.03      0.44
 REAL TIME  *         2.07 SEC
 DISK USED  *        34.45 MB
 **********************************************************************************************************************************


 PROGRAM * MP2 (Closed-shell)     Authors: C. Hampel, H.-J. Werner, 1991, M. Deegan, P.J. Knowles, 1992


 Convergence thresholds:  THRVAR = 1.00D-08  THRDEN = 1.00D-06

 Number of core orbitals:           2 (   1   0   1   0 )
 Number of closed-shell orbitals:   8 (   3   1   3   1 )
 Number of external orbitals:      38 (  13   7  12   6 )

 Molecular orbitals read from record     7000.2  Type=PAPT/CANONICAL (state 1.1)

 Number of N-1 electron functions:               8
 Number of N-2 electron functions:              36
 Number of singly external CSFs:                88
 Number of doubly external CSFs:             11992
 Total number of CSFs:                       12081

 Length of J-op  integral file:               0.00 MB
 Length of K-op  integral file:               0.11 MB

 Integral transformation finished. Total CPU:   0.00 sec, npass=  1  Memory used:   0.08 MW
 Orbital energies read from record       7000.2  Type=PAPT/CANONICAL (state 1.1)

 Memory needed for MP2:                      0.00 MW

 SCS-MP2 correlation energy:           -0.432508173672   (PS=  1.200000  PT=  0.333333)
 SCS-MP2 total energy:               -152.392175673213


  Reference energy                   -151.959667499542
  MP2 singlet pair energy              -0.270205712826
  MP2 triplet pair energy              -0.173991404378
  MP2 correlation energy               -0.444197117205

 !MP2 total energy                   -152.403864616746


 **********************************************************************************************************************************
 DATASETS  * FILE   NREC   LENGTH (MB)   RECORD NAMES
              1      21       29.76       500      610      700      900      950      970     1000      129      960     1100   
                                          VAR    BASINP    GEOM    SYMINP    ZMAT    AOBASIS   BASIS     P2S    ABASIS      S 
                                         1400     1410     1200     1210     1080     1600     1650     1300     1700     1380   
                                           T        V       H0       H01     AOSYM     SMH    MOLCAS    ERIS     OPER     JKOP   
                                         7000   
                                        PAPT AO    

              2       5        0.59       700     1000      520     2100     7000   
                                         GEOM     BASIS   MCVARS     RHF     PAPT   

 PROGRAMS   *        TOTAL       MP2      PAPT    HF-SCF       INT
 CPU TIMES  *         0.79      0.06      0.12      0.03      0.44
 REAL TIME  *         2.22 SEC
 DISK USED  *        34.45 MB
 **********************************************************************************************************************************

 Dump information in style XML to xml output                                                                      

 Orbitals will not be exported.

 **********************************************************************************************************************************

 MP2/cc-pVDZ energy=   -152.403864616746

             MP2            PAPT          HF-SCF
   -152.40386462   -152.40142377   -151.95966750
 **********************************************************************************************************************************
 Molpro calculation terminated
