
 Working directory              : /home/jovyan/scratch/molpro.oPlsE1qFau/
 Global scratch directory       : /home/jovyan/scratch/molpro.oPlsE1qFau/
 Wavefunction directory         : /home/jovyan/wfu/
 Main file repository           : /home/jovyan/scratch/molpro.oPlsE1qFau/

 id        : cardiff

 Nodes                nprocs
 jupyter-c-2efrancisan    1
 GA implementation: MPI file
 GA implementation (serial work in mppx): MPI file

 Using customized tuning parameters: mindgm=1; mindgv=20; mindgc=4; mindgr=1; noblas=0; minvec=7
 default implementation of scratch files=df  


 Variables initialized (1031), CPU time= 0.00 sec
 
 
 
 geometry={
            3
     N          0.00000000      0.00000000     -1.14542900
     N          0.00000000      0.00000000     -0.01934100
     O          0.00000000      0.00000000      1.16477000
 }
 basis=cc-pVDZ
 angstrom
 
 
 hf; ccsd
 
 
 
 {put,xml;noorbitals,nobasis}
 Commands initialized (841), CPU time= 0.01 sec, 704 directives.
 Default parameters read. Elapsed time= 0.07 sec

 Checking input...
 Passed
1


                                         ***  PROGRAM SYSTEM MOLPRO  ***
                                       Copyright, TTI GmbH Stuttgart, 2015
                                    Version 2023.1 linked Mon Jun  5 13:27:10 2023


 **********************************************************************************************************************************
 LABEL *                                                                                                                                                                 
  (16 PROC) 64 bit serial version                                                        DATE: 03-Aug-23          TIME: 11:31:01  
 **********************************************************************************************************************************

 SHA1:             9738a14712571edd23541b6d7c4f3a3d766f8287
 **********************************************************************************************************************************

 Memory per process:       805 MW
 Total memory per node:   1074 MW
 Total GA space:           268 MW

 GA preallocation disabled
 GA check enabled

 Geometry recognized as XYZ


 Variable memory set to 805.3 MW

 SETTING BASIS          =    CC-PVDZ


 Recomputing integrals since basis changed


 Using spherical harmonics

 Library entry N      S cc-pVDZ              selected for orbital group  1
 Library entry N      P cc-pVDZ              selected for orbital group  1
 Library entry N      D cc-pVDZ              selected for orbital group  1
 Library entry O      S cc-pVDZ              selected for orbital group  2
 Library entry O      P cc-pVDZ              selected for orbital group  2
 Library entry O      D cc-pVDZ              selected for orbital group  2


 PROGRAM * SEWARD (Integral evaluation for generally contracted gaussian basis sets)     Author: Roland Lindh, 1990

 Geometry written to block  1 of record 700


 Point group  C2v 



 ATOMIC COORDINATES

 NR  ATOM    CHARGE       X              Y              Z

   1  N       7.00    0.000000000    0.000000000   -2.164547105
   2  N       7.00    0.000000000    0.000000000   -0.036549193
   3  O       8.00    0.000000000    0.000000000    2.201096298

 Bond lengths in Bohr (Angstrom)

 1-2  2.127997912  2-3  2.237645491
     ( 1.126088000)     ( 1.184111000)

 Bond angles

  1-2-3  180.00000000

 NUCLEAR CHARGE:                   22
 NUMBER OF PRIMITIVE AOS:          81
 NUMBER OF SYMMETRY AOS:           78
 NUMBER OF CONTRACTIONS:           42   (   21A1  +    9B1  +    9B2  +    3A2  )
 NUMBER OF INNER CORE ORBITALS:     0   (    0A1  +    0B1  +    0B2  +    0A2  )
 NUMBER OF OUTER CORE ORBITALS:     3   (    3A1  +    0B1  +    0B2  +    0A2  )
 NUMBER OF VALENCE ORBITALS:       12   (    6A1  +    3B1  +    3B2  +    0A2  )


 NUCLEAR REPULSION ENERGY   60.88007743

 EXTRA SYMMETRY OF AOS IN SYMMETRY 1:   1 1 1 1 1 1 2 1 1 1   1 1 1 2 1 1 1 1 1 1   2

 Eigenvalues of metric

         1 0.233E-02 0.796E-02 0.352E-01 0.563E-01 0.734E-01 0.127E+00 0.143E+00 0.175E+00
         2 0.962E-01 0.179E+00 0.208E+00 0.322E+00 0.594E+00 0.113E+01 0.132E+01 0.202E+01
         3 0.962E-01 0.179E+00 0.208E+00 0.322E+00 0.594E+00 0.113E+01 0.132E+01 0.202E+01
         4 0.822E+00 0.100E+01 0.118E+01


 Contracted 2-electron integrals neglected if value below      1.0D-11
 AO integral compression algorithm  1   Integral accuracy      1.0D-11

     0.786 MB (compressed) written to integral file ( 73.5%)


 NUMBER OF SORTED TWO-ELECTRON INTEGRALS:     118419.     BUFFER LENGTH:  32768
 NUMBER OF SEGMENTS:   1  SEGMENT LENGTH:     118419      RECORD LENGTH: 524288

 Memory used in sort:       0.68 MW

 SORT1 READ      145884. AND WROTE      104816. INTEGRALS IN      1 RECORDS. CPU TIME:     0.01 SEC, REAL TIME:     0.11 SEC
 SORT2 READ      104816. AND WROTE      118419. INTEGRALS IN      3 RECORDS. CPU TIME:     0.01 SEC, REAL TIME:     0.01 SEC

 FILE SIZES:   FILE 1:    30.8 MBYTE,  FILE 4:     4.3 MBYTE,   TOTAL:     35.1 MBYTE

 OPERATOR DM      FOR CENTER  0  COORDINATES:    0.000000    0.000000    0.000000


 **********************************************************************************************************************************
 DATASETS  * FILE   NREC   LENGTH (MB)   RECORD NAMES
              1      19       29.18       500      610      700      900      950      970     1000      129      960     1100   
                                          VAR    BASINP    GEOM    SYMINP    ZMAT    AOBASIS   BASIS     P2S    ABASIS      S 
                                         1400     1410     1200     1210     1080     1600     1650     1300     1700   
                                           T        V       H0       H01     AOSYM     SMH    MOLCAS    ERIS     OPER   

 PROGRAMS   *        TOTAL       INT
 CPU TIMES  *         0.58      0.44
 REAL TIME  *         1.83 SEC
 DISK USED  *        33.84 MB
 **********************************************************************************************************************************


 Program * Restricted Hartree-Fock

 Orbital guess generated from atomic densities. Full valence occupancy:    9   3   3   0

 Initial occupancy:   7   2   2   0

 NELEC=   22   SYM=1   MS2= 0   THRE=1.0D-08   THRD=3.2D-06   THRG=3.2D-06  HFMA2=F  DIIS_START=2   DIIS_MAX=10   DIIS_INCORE=F

 Level shifts:    0.00 (CLOSED)    0.00 (OPEN)    0.30 (GAP_MIN)

 ITER           ETOT              DE          GRAD        DDIFF     DIIS  NEXP   TIME(IT)  TIME(TOT)  DIAG
   1     -183.59971390    -183.59971390     0.00D+00     0.33D+00     0     0       0.00      0.00    start
   2     -183.64472342      -0.04500952     0.32D-01     0.70D-01     1     0       0.00      0.00    diag
   3     -183.69509998      -0.05037656     0.24D-01     0.34D-01     2     0       0.00      0.00    diag
   4     -183.69587838      -0.00077840     0.25D-02     0.50D-02     3     0       0.00      0.00    diag
   5     -183.69611681      -0.00023843     0.14D-02     0.22D-02     4     0       0.01      0.01    diag
   6     -183.69617447      -0.00005765     0.46D-03     0.12D-02     5     0       0.00      0.01    diag
   7     -183.69618035      -0.00000589     0.16D-03     0.43D-03     6     0       0.00      0.01    diag
   8     -183.69618057      -0.00000021     0.34D-04     0.85D-04     7     0       0.00      0.01    fixocc
   9     -183.69618057      -0.00000000     0.39D-05     0.10D-04     8     0       0.00      0.01    diag
  10     -183.69618057      -0.00000000     0.25D-06     0.77D-06     9     0       0.01      0.02    diag/orth
  11     -183.69618057      -0.00000000     0.70D-07     0.19D-06     0     0       0.00      0.02    diag

 Final occupancy:   7   2   2   0

 !RHF STATE 1.1 Energy               -183.696180568799
  RHF One-electron energy            -370.639577148800
  RHF Two-electron energy             126.063319149758
  RHF Kinetic energy                  183.372797886016
  RHF Nuclear energy                   60.880077430243
  RHF Virial quotient                  -1.001763525924

 !RHF STATE 1.1 Dipole moment           0.00000000     0.00000000    -0.25677074
 Dipole moment /Debye                   0.00000000     0.00000000    -0.65264613

 Orbital energies:

           1.1          2.1          3.1          4.1          5.1          6.1          7.1          8.1          9.1
    -20.653881   -15.847183   -15.702285    -1.615707    -1.426195    -0.827169    -0.693078     0.370663     0.592926

           1.2          2.2          3.2          4.2
     -0.760027    -0.485459     0.161447     0.849971

           1.3          2.3          3.3          4.3
     -0.760027    -0.485459     0.161447     0.849971

           1.4          2.4
      1.687153     2.193117


 HOMO      2.3    -0.485459 =     -13.2100eV
 LUMO      3.2     0.161447 =       4.3932eV
 LUMO-HOMO         0.646906 =      17.6032eV

 Orbitals saved in record  2100.2


 **********************************************************************************************************************************
 DATASETS  * FILE   NREC   LENGTH (MB)   RECORD NAMES
              1      19       29.18       500      610      700      900      950      970     1000      129      960     1100   
                                          VAR    BASINP    GEOM    SYMINP    ZMAT    AOBASIS   BASIS     P2S    ABASIS      S 
                                         1400     1410     1200     1210     1080     1600     1650     1300     1700   
                                           T        V       H0       H01     AOSYM     SMH    MOLCAS    ERIS     OPER   

              2       4        0.42       700     1000      520     2100   
                                         GEOM     BASIS   MCVARS     RHF  

 PROGRAMS   *        TOTAL    HF-SCF       INT
 CPU TIMES  *         0.60      0.02      0.44
 REAL TIME  *         1.86 SEC
 DISK USED  *        33.84 MB
 **********************************************************************************************************************************


 PROGRAM * CCSD (Closed-shell coupled cluster)     Authors: C. Hampel, H.-J. Werner, 1991, M. Deegan, P.J. Knowles, 1992


 Convergence thresholds:  THRVAR = 1.00D-08  THRDEN = 1.00D-06

 Number of core orbitals:           3 (   3   0   0   0 )
 Number of closed-shell orbitals:   8 (   4   2   2   0 )
 Number of external orbitals:      31 (  14   7   7   3 )

 Molecular orbitals read from record     2100.2  Type=RHF/CANONICAL  

 Number of N-1 electron functions:               8
 Number of N-2 electron functions:              36
 Number of singly external CSFs:                84
 Number of doubly external CSFs:              8296
 Total number of CSFs:                        8381

 Length of J-op  integral file:               0.00 MB
 Length of K-op  integral file:               0.10 MB
 Length of 3-ext integral record:             0.00 MB

 Integral transformation finished. Total CPU:   0.01 sec, npass=  1  Memory used:   0.11 MW

 Reference energy:                   -183.69618057

 MP2 singlet pair energy:              -0.30254270
 MP2 triplet pair energy:              -0.22301683
 MP2 correlation energy:               -0.52555953
 MP2 total energy:                   -184.22174010

 SCS-MP2 correlation energy:           -0.50181727   (PS=  1.200000  PT=  0.333333)
 SCS-MP2 total energy:               -184.19799784

 ITER.      SQ.NORM     CORR.ENERGY   TOTAL ENERGY   ENERGY CHANGE        DEN1      VAR(S)    VAR(P)  DIIS     TIME  TIME/IT
   1      1.15372317    -0.51555558  -184.21173615     0.01000395     0.03658121  0.87D-02  0.73D-02  1  1     0.86     0.02
   2      1.16763437    -0.51227321  -184.20845378     0.00328236    -0.01806881  0.20D-03  0.72D-03  2  2     0.87     0.02
   3      1.17552301    -0.51288556  -184.20906613    -0.00061235    -0.00363780  0.24D-03  0.68D-04  3  3     0.88     0.02
   4      1.17873607    -0.51263534  -184.20881591     0.00025022    -0.00125822  0.18D-04  0.13D-04  4  4     0.90     0.02
   5      1.18077941    -0.51261706  -184.20879762     0.00001829    -0.00058602  0.23D-05  0.99D-06  5  5     0.91     0.02
   6      1.18111496    -0.51258152  -184.20876209     0.00003553    -0.00005103  0.14D-06  0.12D-06  6  6     0.92     0.02
   7      1.18118446    -0.51257680  -184.20875737     0.00000472    -0.00000218  0.15D-07  0.18D-07  6  2     0.94     0.02
   8      1.18118737    -0.51257602  -184.20875659     0.00000078     0.00000536  0.11D-08  0.15D-08  6  1     0.95     0.02
   9      1.18118810    -0.51257555  -184.20875612     0.00000047     0.00000180  0.59D-10  0.25D-09  6  4     0.97     0.02

 Norm of t1 vector:      0.11551073      S-energy:    -0.00000063      T1 diagnostic:  0.02041961
                                                                       D1 diagnostic:  0.05004315
                                                                       D2 diagnostic:  0.18356956 (external, symmetry=2)

 Doubles amplitudes (print threshold =  0.500E-01):

         I         J         SYM. A    SYM. B    A         B      T(IJ, AB)

         5         5         2         2         1         1     -0.05332512
         6         6         2         2         1         1     -0.09328377
         7         7         3         3         1         1     -0.05332512
         8         8         3         3         1         1     -0.09328377
         8         6         3         2         1         1     -0.06445466


 RESULTS
 =======

  Reference energy                   -183.696180568799
  CCSD singlet pair energy             -0.329952671097
  CCSD triplet pair energy             -0.182622240323
  CCSD correlation energy              -0.512575546291

 !CCSD total energy                  -184.208756115090

 Timing summary (sec):

 STEP                 CPU(USER)    SYS     CPU(TOT)    WALL
 Transformation          0.01      0.00      0.01      0.11
 CCSD iterations         0.96      0.02      0.98      0.16

 Program statistics:

 Available memory in ccsd:               805306105
 Min. memory needed in ccsd:                 33123
 Max. memory used in ccsd:                   38415
 Max. memory used in cckext:                 77009 ( 9 integral passes)



 **********************************************************************************************************************************
 DATASETS  * FILE   NREC   LENGTH (MB)   RECORD NAMES
              1      20       29.65       500      610      700      900      950      970     1000      129      960     1100   
                                          VAR    BASINP    GEOM    SYMINP    ZMAT    AOBASIS   BASIS     P2S    ABASIS      S 
                                         1400     1410     1200     1210     1080     1600     1650     1300     1700     1380   
                                           T        V       H0       H01     AOSYM     SMH    MOLCAS    ERIS     OPER     JKOP   

              2       4        0.42       700     1000      520     2100   
                                         GEOM     BASIS   MCVARS     RHF  

 PROGRAMS   *        TOTAL      CCSD    HF-SCF       INT
 CPU TIMES  *         0.78      0.18      0.02      0.44
 REAL TIME  *         2.17 SEC
 DISK USED  *        33.84 MB
 **********************************************************************************************************************************

 Dump information in style XML to xml output                                                                      

 Orbitals will not be exported.

 **********************************************************************************************************************************

 CCSD/cc-pVDZ energy=   -184.208756115090

            CCSD          HF-SCF
   -184.20875612   -183.69618057
 **********************************************************************************************************************************
 Molpro calculation terminated
