
 Working directory              : /home/jovyan/scratch/molpro.hC4XkijaR5/
 Global scratch directory       : /home/jovyan/scratch/molpro.hC4XkijaR5/
 Wavefunction directory         : /home/jovyan/wfu/
 Main file repository           : /home/jovyan/scratch/molpro.hC4XkijaR5/

 id        : cardiff

 Nodes                nprocs
 jupyter-c-2efrancisan    1
 GA implementation: MPI file
 GA implementation (serial work in mppx): MPI file

 Using customized tuning parameters: mindgm=1; mindgv=20; mindgc=4; mindgr=1; noblas=0; minvec=7
 default implementation of scratch files=df  


 Variables initialized (1031), CPU time= 0.00 sec
 
 
 
 geometry={
 16
  4NH3TS (Full point group Cs)
  H 1.424320 0.315746 0.000000
  H 0.446026 -1.447322 0.000000
  H -1.508748 0.121957 0.000000
  H 0.000000 1.458660 0.000000
  H 1.507411 1.878060 0.821411
  H 1.964125 -1.661433 -0.812887
  H -1.557872 -1.938180 0.802236
  H -2.045777 1.558489 -0.812895
  N 1.134596 1.413387 0.000000
  N -1.163704 -1.448618 0.000000
  N 1.542580 -1.223744 0.000000
  N -1.527382 1.241416 0.000000
  H -2.045777 1.558489 0.812895
  H -1.557872 -1.938180 -0.802236
  H 1.964125 -1.661433 0.812887
  H 1.507411 1.878060 -0.821411
 }
 basis=cc-pVTZ
 angstrom
 
 
 hf
 
 
 
 {put,xml;noorbitals,nobasis}
 Commands initialized (841), CPU time= 0.01 sec, 704 directives.
 Default parameters read. Elapsed time= 0.08 sec

 Checking input...
 Passed
1


                                         ***  PROGRAM SYSTEM MOLPRO  ***
                                       Copyright, TTI GmbH Stuttgart, 2015
                                    Version 2023.1 linked Mon Jun  5 13:27:10 2023


 **********************************************************************************************************************************
 LABEL *                                                                                                                                                                 
  (16 PROC) 64 bit serial version                                                        DATE: 03-Aug-23          TIME: 12:33:26  
 **********************************************************************************************************************************

 SHA1:             9738a14712571edd23541b6d7c4f3a3d766f8287
 **********************************************************************************************************************************

 Memory per process:       805 MW
 Total memory per node:   1074 MW
 Total GA space:           268 MW

 GA preallocation disabled
 GA check enabled

 Geometry recognized as XYZ


 Variable memory set to 805.3 MW

 SETTING BASIS          =    CC-PVTZ


 Recomputing integrals since basis changed


 Using spherical harmonics

 Library entry H      S cc-pVTZ              selected for orbital group  1
 Library entry H      P cc-pVTZ              selected for orbital group  1
 Library entry H      D cc-pVTZ              selected for orbital group  1
 Library entry N      S cc-pVTZ              selected for orbital group  2
 Library entry N      P cc-pVTZ              selected for orbital group  2
 Library entry N      D cc-pVTZ              selected for orbital group  2
 Library entry N      F cc-pVTZ              selected for orbital group  2


 PROGRAM * SEWARD (Integral evaluation for generally contracted gaussian basis sets)     Author: Roland Lindh, 1990

 Geometry written to block  1 of record 700


 Point group  Cs  



 ATOMIC COORDINATES

 NR  ATOM    CHARGE       X              Y              Z

   1  H       1.00    2.691574714    0.596673465    0.000000000
   2  H       1.00    0.842866984   -2.735042194    0.000000000
   3  H       1.00   -2.851120511    0.230465329    0.000000000
   4  H       1.00    0.000000000    2.756467909    0.000000000
   5  H       1.00    2.848593947    3.549019046    1.552241826
   6  H       1.00    2.848593947    3.549019046   -1.552241826
   7  H       1.00    3.711658325   -3.139653344   -1.536133800
   8  H       1.00    3.711658325   -3.139653344    1.536133800
   9  H       1.00   -2.943951417   -3.662629380    1.516006327
  10  H       1.00   -2.943951417   -3.662629380   -1.516006327
  11  H       1.00   -3.865958242    2.945117378   -1.536148918
  12  H       1.00   -3.865958242    2.945117378    1.536148918
  13  N       7.00    2.144075702    2.670914338    0.000000000
  14  N       7.00   -2.199081850   -2.737491279    0.000000000
  15  N       7.00    2.915053725   -2.312541007    0.000000000
  16  N       7.00   -2.886333668    2.345936247    0.000000000

 Bond lengths in Bohr (Angstrom)

  1-13  2.145280953   2-15  2.114820357   3-16  2.115763968   4-13  2.145781916   5-13  1.917516237
       ( 1.135233791)       ( 1.119114738)       ( 1.119614076)       ( 1.135498889)       ( 1.014705894)

  6-13  1.917516237   7-15  1.917915733   8-15  1.917915733   9-14  1.925872883  10-14  1.925872883
       ( 1.014705894)       ( 1.014917298)       ( 1.014917298)       ( 1.019128041)       ( 1.019128041)

 11-16  1.917924877  12-16  1.917924877
       ( 1.014922137)       ( 1.014922137)

 Bond angles

  1-13- 4  107.07110203   1-13- 5  110.42656967   1-13- 6  110.42656967   2-15- 7  108.71246959

  2-15- 8  108.71246959   3-16-11  108.71547461   3-16-12  108.71547461   4-13- 5  110.41769242

  4-13- 6  110.41769242   5-13- 6  108.09548296   7-15- 8  106.43975710   9-14-10  103.84528629

 11-16-12  106.44053487

 NUCLEAR CHARGE:                   40
 NUMBER OF PRIMITIVE AOS:         392
 NUMBER OF SYMMETRY AOS:          360
 NUMBER OF CONTRACTIONS:          288   (  176A'  +  112A"  )
 NUMBER OF INNER CORE ORBITALS:     0   (    0A'  +    0A"  )
 NUMBER OF OUTER CORE ORBITALS:     4   (    4A'  +    0A"  )
 NUMBER OF VALENCE ORBITALS:       28   (   20A'  +    8A"  )


 NUCLEAR REPULSION ENERGY  150.59586220


 Eigenvalues of metric

         1 0.106E-02 0.126E-02 0.130E-02 0.182E-02 0.240E-02 0.260E-02 0.286E-02 0.301E-02
         2 0.196E-02 0.308E-02 0.312E-02 0.438E-02 0.803E-02 0.828E-02 0.840E-02 0.865E-02


 Contracted 2-electron integrals neglected if value below      1.0D-11
 AO integral compression algorithm  1   Integral accuracy      1.0D-11

     1102.578 MB (compressed) written to integral file ( 30.9%)


 NUMBER OF SORTED TWO-ELECTRON INTEGRALS:  437033416.     BUFFER LENGTH:  32768
 NUMBER OF SEGMENTS:  28  SEGMENT LENGTH:   15999503      RECORD LENGTH: 524288

 Memory used in sort:      16.56 MW

 SORT1 READ   445787143. AND WROTE   293881599. INTEGRALS IN    854 RECORDS. CPU TIME:     7.70 SEC, REAL TIME:    10.14 SEC
 SORT2 READ   293881599. AND WROTE   437033416. INTEGRALS IN   4206 RECORDS. CPU TIME:     7.63 SEC, REAL TIME:     8.93 SEC

 FILE SIZES:   FILE 1:  1135.0 MBYTE,  FILE 4:  3582.0 MBYTE,   TOTAL:   4717.0 MBYTE

 OPERATOR DM      FOR CENTER  0  COORDINATES:    0.000000    0.000000    0.000000


 **********************************************************************************************************************************
 DATASETS  * FILE   NREC   LENGTH (MB)   RECORD NAMES
              1      19     1044.95       500      610      700      900      950      970     1000      129      960     1100   
                                          VAR    BASINP    GEOM    SYMINP    ZMAT    AOBASIS   BASIS     P2S    ABASIS      S 
                                         1400     1410     1200     1210     1080     1600     1650     1300     1700   
                                           T        V       H0       H01     AOSYM     SMH    MOLCAS    ERIS     OPER   

 PROGRAMS   *        TOTAL       INT
 CPU TIMES  *        50.52     50.39
 REAL TIME  *        56.91 SEC
 DISK USED  *         4.39 GB
 **********************************************************************************************************************************


 Program * Restricted Hartree-Fock

 Orbital guess generated from atomic densities. Full valence occupancy:   24   8

 Initial occupancy:  16   4

 NELEC=   40   SYM=1   MS2= 0   THRE=1.0D-08   THRD=3.2D-06   THRG=3.2D-06  HFMA2=F  DIIS_START=2   DIIS_MAX=10   DIIS_INCORE=F

 Level shifts:    0.00 (CLOSED)    0.00 (OPEN)    0.30 (GAP_MIN)

 ITER           ETOT              DE          GRAD        DDIFF     DIIS  NEXP   TIME(IT)  TIME(TOT)  DIAG
   1     -224.67583477    -224.67583477     0.00D+00     0.57D-01     0     0       3.76      7.45    start
   2     -224.75178323      -0.07594846     0.58D-02     0.93D-02     1     0       3.75     11.20    diag
   3     -224.77734218      -0.02555895     0.32D-02     0.32D-02     2     0       3.77     14.97    diag
   4     -224.77834942      -0.00100724     0.50D-03     0.67D-03     3     0       3.74     18.71    diag
   5     -224.77841997      -0.00007055     0.14D-03     0.16D-03     4     0       3.77     22.48    diag
   6     -224.77842915      -0.00000917     0.46D-04     0.65D-04     5     0       3.73     26.21    diag
   7     -224.77842967      -0.00000052     0.10D-04     0.16D-04     6     0       3.73     29.94    diag
   8     -224.77842971      -0.00000004     0.28D-05     0.48D-05     7     0       3.74     33.68    fixocc
   9     -224.77842972      -0.00000000     0.93D-06     0.14D-05     8     0       3.72     37.40    diag
  10     -224.77842972      -0.00000000     0.24D-06     0.39D-06     0     0       3.72     41.12    diag/orth

 Final occupancy:  16   4

 !RHF STATE 1.1 Energy               -224.778429715901
  RHF One-electron energy            -605.162136302486
  RHF Two-electron energy             229.787844381680
  RHF Kinetic energy                  224.426981658083
  RHF Nuclear energy                  150.595862204905
  RHF Virial quotient                  -1.001565979524

 !RHF STATE 1.1 Dipole moment           1.36312314     1.69750077     0.00000000
 Dipole moment /Debye                   3.46471344     4.31461659     0.00000000

 Orbital energies:

           1.1          2.1          3.1          4.1          5.1          6.1          7.1          8.1          9.1         10.1
    -15.600368   -15.505599   -15.505498   -15.405532    -1.214654    -1.106564    -1.105732    -0.978863    -0.690615    -0.668773

          11.1         12.1         13.1         14.1         15.1         16.1         17.1         18.1
     -0.587029    -0.583561    -0.420577    -0.402956    -0.346525    -0.268579     0.113924     0.169063

           1.2          2.2          3.2          4.2          5.2          6.2
     -0.694273    -0.603908    -0.603654    -0.499941     0.177185     0.226581


 HOMO     16.1    -0.268579 =      -7.3084eV
 LUMO     17.1     0.113924 =       3.1000eV
 LUMO-HOMO         0.382502 =      10.4084eV

 Orbitals saved in record  2100.2


 **********************************************************************************************************************************
 DATASETS  * FILE   NREC   LENGTH (MB)   RECORD NAMES
              1      19     1044.95       500      610      700      900      950      970     1000      129      960     1100   
                                          VAR    BASINP    GEOM    SYMINP    ZMAT    AOBASIS   BASIS     P2S    ABASIS      S 
                                         1400     1410     1200     1210     1080     1600     1650     1300     1700   
                                           T        V       H0       H01     AOSYM     SMH    MOLCAS    ERIS     OPER   

              2       4        1.34       700     1000      520     2100   
                                         GEOM     BASIS   MCVARS     RHF  

 PROGRAMS   *        TOTAL    HF-SCF       INT
 CPU TIMES  *        91.65     41.13     50.39
 REAL TIME  *       101.27 SEC
 DISK USED  *         4.39 GB
 **********************************************************************************************************************************

 Dump information in style XML to xml output                                                                      

 Orbitals will not be exported.

 **********************************************************************************************************************************

 HF/cc-pVTZ energy=   -224.778429715901

          HF-SCF
   -224.77842972
 **********************************************************************************************************************************
 Molpro calculation terminated
