
 Working directory              : /home/jovyan/scratch/molpro.Mg4cUW0wwb/
 Global scratch directory       : /home/jovyan/scratch/molpro.Mg4cUW0wwb/
 Wavefunction directory         : /home/jovyan/wfu/
 Main file repository           : /home/jovyan/scratch/molpro.Mg4cUW0wwb/

 id        : cardiff

 Nodes                nprocs
 jupyter-c-2efrancisan    1
 GA implementation: MPI file
 GA implementation (serial work in mppx): MPI file

 Using customized tuning parameters: mindgm=1; mindgv=20; mindgc=4; mindgr=1; noblas=0; minvec=7
 default implementation of scratch files=df  


 Variables initialized (1031), CPU time= 0.01 sec
 
 
 
 geometry={
            6
     F          0.00000000      0.00000000     -1.79137135
     C          0.00000000      0.00000000     -0.36561703
     H         -0.51179113      0.88644824     -0.01758668
     H         -0.51179113     -0.88644824     -0.01758668
     H          1.02358226      0.00000000     -0.01758668
     F          0.00000000      0.00000000      2.20974841
 }
 basis=cc-pVTZ
 angstrom
 charge=-1
 
 hf; papt;mp4
 
 
 
 {put,xml;noorbitals,nobasis}
 Commands initialized (841), CPU time= 0.00 sec, 704 directives.
 Default parameters read. Elapsed time= 0.08 sec

 Checking input...
 Passed
1


                                         ***  PROGRAM SYSTEM MOLPRO  ***
                                       Copyright, TTI GmbH Stuttgart, 2015
                                    Version 2023.1 linked Mon Jun  5 13:27:10 2023


 **********************************************************************************************************************************
 LABEL *                                                                                                                                                                 
  (16 PROC) 64 bit serial version                                                        DATE: 02-Aug-23          TIME: 15:48:04  
 **********************************************************************************************************************************

 SHA1:             9738a14712571edd23541b6d7c4f3a3d766f8287
 **********************************************************************************************************************************

 Memory per process:       805 MW
 Total memory per node:   1074 MW
 Total GA space:           268 MW

 GA preallocation disabled
 GA check enabled

 Geometry recognized as XYZ


 Variable memory set to 805.3 MW

 SETTING BASIS          =    CC-PVTZ
 SETTING CHARGE         =        -1.00000000                                  


 Recomputing integrals since basis changed


 Using spherical harmonics

 Library entry F      S cc-pVTZ              selected for orbital group  1
 Library entry F      P cc-pVTZ              selected for orbital group  1
 Library entry F      D cc-pVTZ              selected for orbital group  1
 Library entry F      F cc-pVTZ              selected for orbital group  1
 Library entry C      S cc-pVTZ              selected for orbital group  2
 Library entry C      P cc-pVTZ              selected for orbital group  2
 Library entry C      D cc-pVTZ              selected for orbital group  2
 Library entry C      F cc-pVTZ              selected for orbital group  2
 Library entry H      S cc-pVTZ              selected for orbital group  3
 Library entry H      P cc-pVTZ              selected for orbital group  3
 Library entry H      D cc-pVTZ              selected for orbital group  3


 PROGRAM * SEWARD (Integral evaluation for generally contracted gaussian basis sets)     Author: Roland Lindh, 1990

 Geometry written to block  1 of record 700


 Point group  Cs  



 ATOMIC COORDINATES

 NR  ATOM    CHARGE       X              Y              Z

   1  F       9.00    0.000000000    0.000000000   -3.385201239
   2  C       6.00    0.000000000    0.000000000   -0.690916053
   3  H       1.00   -0.967145069    1.675144397   -0.033234009
   4  H       1.00   -0.967145069   -1.675144397   -0.033234009
   5  H       1.00    1.934290137    0.000000000   -0.033234009
   6  F       9.00    0.000000000    0.000000000    4.175819299

 Bond lengths in Bohr (Angstrom)

 1-2  2.694285186  2-3  2.043042831  2-4  2.043042831  2-5  2.043042831
     ( 1.425754320)     ( 1.081131707)     ( 1.081131707)     ( 1.081131707)

 Bond angles

  1-2-3  108.77865447   1-2-4  108.77865447   1-2-5  108.77865447   3-2-4  110.15481872

  3-2-5  110.15481872   4-2-5  110.15481872

 NUCLEAR CHARGE:                   27
 NUMBER OF PRIMITIVE AOS:         192
 NUMBER OF SYMMETRY AOS:          174
 NUMBER OF CONTRACTIONS:          132   (   84A'  +   48A"  )
 NUMBER OF INNER CORE ORBITALS:     0   (    0A'  +    0A"  )
 NUMBER OF OUTER CORE ORBITALS:     3   (    3A'  +    0A"  )
 NUMBER OF VALENCE ORBITALS:       15   (   11A'  +    4A"  )


 NUCLEAR REPULSION ENERGY   64.36223019


 Eigenvalues of metric

         1 0.121E-02 0.187E-02 0.316E-02 0.530E-02 0.104E-01 0.120E-01 0.123E-01 0.162E-01
         2 0.187E-02 0.104E-01 0.229E-01 0.326E-01 0.409E-01 0.515E-01 0.535E-01 0.785E-01


 Contracted 2-electron integrals neglected if value below      1.0D-11
 AO integral compression algorithm  1   Integral accuracy      1.0D-11

     67.633 MB (compressed) written to integral file ( 38.2%)


 NUMBER OF SORTED TWO-ELECTRON INTEGRALS:   19661271.     BUFFER LENGTH:  32768
 NUMBER OF SEGMENTS:   2  SEGMENT LENGTH:   15998451      RECORD LENGTH: 524288

 Memory used in sort:      16.56 MW

 SORT1 READ    22102002. AND WROTE    14808286. INTEGRALS IN     43 RECORDS. CPU TIME:     0.30 SEC, REAL TIME:     0.50 SEC
 SORT2 READ    14808286. AND WROTE    19661271. INTEGRALS IN    258 RECORDS. CPU TIME:     0.50 SEC, REAL TIME:     0.61 SEC

 FILE SIZES:   FILE 1:    98.2 MBYTE,  FILE 4:   180.4 MBYTE,   TOTAL:    278.6 MBYTE

 OPERATOR DM      FOR CENTER  0  COORDINATES:    0.000000    0.000000    0.000000


 **********************************************************************************************************************************
 DATASETS  * FILE   NREC   LENGTH (MB)   RECORD NAMES
              1      19       85.43       500      610      700      900      950      970     1000      129      960     1100   
                                          VAR    BASINP    GEOM    SYMINP    ZMAT    AOBASIS   BASIS     P2S    ABASIS      S 
                                         1400     1410     1200     1210     1080     1600     1650     1300     1700   
                                           T        V       H0       H01     AOSYM     SMH    MOLCAS    ERIS     OPER   

 PROGRAMS   *        TOTAL       INT
 CPU TIMES  *         3.34      3.21
 REAL TIME  *         5.02 SEC
 DISK USED  *       266.14 MB
 **********************************************************************************************************************************


 Program * Restricted Hartree-Fock

 Orbital guess generated from atomic densities. Full valence occupancy:   14   4

 Initial occupancy:  11   3

 NELEC=   28   SYM=1   MS2= 0   THRE=1.0D-08   THRD=3.2D-06   THRG=3.2D-06  HFMA2=F  DIIS_START=2   DIIS_MAX=10   DIIS_INCORE=F

 Level shifts:    0.00 (CLOSED)    0.00 (OPEN)    0.30 (GAP_MIN)

 ITER           ETOT              DE          GRAD        DDIFF     DIIS  NEXP   TIME(IT)  TIME(TOT)  DIAG
   1     -238.44097730    -238.44097730     0.00D+00     0.11D+00     0     0       0.17      0.33    start
   2     -238.50692146      -0.06594416     0.12D-01     0.17D-01     1     0       0.17      0.50    diag
   3     -238.54607690      -0.03915544     0.91D-02     0.64D-02     2     0       0.15      0.65    diag
   4     -238.54652527      -0.00044837     0.54D-03     0.77D-03     3     0       0.17      0.82    diag
   5     -238.54655471      -0.00002944     0.14D-03     0.23D-03     4     0       0.16      0.98    diag
   6     -238.54655730      -0.00000259     0.55D-04     0.63D-04     5     0       0.16      1.14    diag
   7     -238.54655757      -0.00000027     0.16D-04     0.24D-04     6     0       0.16      1.30    diag
   8     -238.54655759      -0.00000002     0.35D-05     0.72D-05     7     0       0.16      1.46    fixocc
   9     -238.54655759      -0.00000000     0.12D-05     0.21D-05     8     0       0.16      1.62    diag
  10     -238.54655759      -0.00000000     0.30D-06     0.45D-06     0     0       0.17      1.79    diag/orth

 Final occupancy:  11   3

 !RHF STATE 1.1 Energy               -238.546557589723
  RHF One-electron energy            -467.917370840827
  RHF Two-electron energy             165.008583057052
  RHF Kinetic energy                  238.608252282698
  RHF Nuclear energy                   64.362230194053
  RHF Virial quotient                  -0.999741439400

 !RHF STATE 1.1 Dipole moment          -0.00000000     0.00000000    -2.63226025
 Dipole moment /Debye                  -0.00000000     0.00000000    -6.69053821

 Orbital energies:

           1.1          2.1          3.1          4.1          5.1          6.1          7.1          8.1          9.1         10.1
    -26.091887   -25.805926   -11.106600    -1.395934    -1.072018    -0.758799    -0.505331    -0.479646    -0.345848    -0.179321

          11.1         12.1         13.1
     -0.178299     0.322249     0.400007

           1.2          2.2          3.2          4.2          5.2
     -0.505331    -0.345848    -0.179321     0.400007     0.558786


 HOMO     11.1    -0.178299 =      -4.8518eV
 LUMO     12.1     0.322249 =       8.7689eV
 LUMO-HOMO         0.500548 =      13.6206eV

 Orbitals saved in record  2100.2


 **********************************************************************************************************************************
 DATASETS  * FILE   NREC   LENGTH (MB)   RECORD NAMES
              1      19       85.43       500      610      700      900      950      970     1000      129      960     1100   
                                          VAR    BASINP    GEOM    SYMINP    ZMAT    AOBASIS   BASIS     P2S    ABASIS      S 
                                         1400     1410     1200     1210     1080     1600     1650     1300     1700   
                                           T        V       H0       H01     AOSYM     SMH    MOLCAS    ERIS     OPER   

              2       4        0.62       700     1000      520     2100   
                                         GEOM     BASIS   MCVARS     RHF  

 PROGRAMS   *        TOTAL    HF-SCF       INT
 CPU TIMES  *         5.13      1.79      3.21
 REAL TIME  *         7.09 SEC
 DISK USED  *       266.14 MB
 **********************************************************************************************************************************


 PROGRAM * PAPT (Closed-shell)     Authors: C. Hampel, H.-J. Werner, 1991, P.J. Knowles, 2021


 Convergence thresholds:  THRVAR = 1.00D-08  THRDEN = 1.00D-06

 Number of core orbitals:           3 (   3   0 )
 Number of closed-shell orbitals:  11 (   8   3 )
 Number of external orbitals:     118 (  73  45 )

 Molecular orbitals read from record     2100.2  Type=RHF/CANONICAL  

 Number of N-1 electron functions:              11
 Number of N-2 electron functions:              66
 Number of singly external CSFs:               719
 Number of doubly external CSFs:            426750
 Total number of CSFs:                      427470

 Length of J-op  integral file:               0.00 MB
 Length of K-op  integral file:               0.71 MB

 Integral transformation finished. Total CPU:   0.33 sec, npass=  1  Memory used:   0.72 MW

 Reference energy:                   -238.54655759

                        CORR.ENERGY   TOTAL ENERGY   ENERGY CHANGE
 MP2:                   -0.70923172  -239.25578931    -0.70923172

 SCS-MP2 correlation energy:           -0.69961869   (PS=  1.200000  PT=  0.333333)
 SCS-MP2 total energy:               -239.24617628
 Iteration:   1     0.2646D+00
 Iteration:   2     0.2678D+00
 Iteration:   3     0.1416D+00
 Iteration:   4     0.1159D+00
 Iteration:   5     0.7481D+00
 Iteration:   6     0.1139D+00
 Iteration:   7     0.1091D+00
 Iteration:   8     0.2301D+00
 Iteration:   9     0.7556D-01
 Iteration:  10     0.2448D+00
 Iteration:  11     0.5383D-01
 Iteration:  12     0.4479D-01
 Iteration:  13     0.8227D-01
 Iteration:  14     0.9109D-02
 Iteration:  15     0.3745D-01
 Iteration:  16     0.4127D-02
 Iteration:  17     0.2606D-02
 Iteration:  18     0.6750D-02
 Iteration:  19     0.1094D-02
 Iteration:  20     0.5297D-02
 Iteration:  21     0.4324D-03
 Iteration:  22     0.4230D-03
 Iteration:  23     0.3247D-03
 Iteration:  24     0.7680D-04
 PAPT operator written to  7000.1
 PAPT orbitals and eigenvalues written to  7000.2

 MP3(D):                -0.71639871  -239.26295630    -0.00716699



 RESULTS
 =======

  Reference energy                   -238.546557589723
  MP3 singlet pair energy              -0.476660928020
  MP3 triplet pair energy              -0.239737779069
  MP3 correlation energy               -0.716398707090

 !MP3 total energy                   -239.262956296813

 Timing summary (sec):

 STEP                 CPU(USER)    SYS     CPU(TOT)    WALL
 Transformation          0.36      0.03      0.39      0.90
 CCSD iterations         8.13      0.10      8.23      3.15

 Program statistics:

 Available memory in ccsd:               805305873
 Min. memory needed in ccsd:               1188137
 Max. memory used in ccsd:                 1556332
 Max. memory used in cckext:               1604021 ( 1 integral passes)



 **********************************************************************************************************************************
 DATASETS  * FILE   NREC   LENGTH (MB)   RECORD NAMES
              1      21       92.35       500      610      700      900      950      970     1000      129      960     1100   
                                          VAR    BASINP    GEOM    SYMINP    ZMAT    AOBASIS   BASIS     P2S    ABASIS      S 
                                         1400     1410     1200     1210     1080     1600     1650     1300     1700     1380   
                                           T        V       H0       H01     AOSYM     SMH    MOLCAS    ERIS     OPER     JKOP   
                                         7000   
                                        PAPT AO    

              2       5        0.94       700     1000      520     2100     7000   
                                         GEOM     BASIS   MCVARS     RHF     PAPT   

 PROGRAMS   *        TOTAL      PAPT    HF-SCF       INT
 CPU TIMES  *         8.18      3.05      1.79      3.21
 REAL TIME  *        11.20 SEC
 DISK USED  *       266.14 MB
 **********************************************************************************************************************************


 PROGRAM * MP4 (Closed-shell)     Authors: C. Hampel, H.-J. Werner, 1991, M. Deegan, P.J. Knowles, 1992


 Convergence thresholds:  THRVAR = 1.00D-08  THRDEN = 1.00D-06

 MP4(T)     terms to be evaluated (factor= 0.000)


 Number of core orbitals:           3 (   3   0 )
 Number of closed-shell orbitals:  11 (   8   3 )
 Number of external orbitals:     118 (  73  45 )

 Molecular orbitals read from record     7000.2  Type=PAPT/CANONICAL (state 1.1)

 Number of N-1 electron functions:              11
 Number of N-2 electron functions:              66
 Number of singly external CSFs:               719
 Number of doubly external CSFs:            426750
 Total number of CSFs:                      427470

 Length of J-op  integral file:               0.00 MB
 Length of K-op  integral file:               0.71 MB

 Memory could be reduced to 12.08 Mwords without degradation in triples

 Integral transformation finished. Total CPU:   0.90 sec, npass=  1  Memory used:   4.82 MW
 Orbital energies read from record       7000.2  Type=PAPT/CANONICAL (state 1.1)

 Reference energy:                   -238.54655759

                        CORR.ENERGY   TOTAL ENERGY   ENERGY CHANGE
 MP2:                   -0.72244137  -239.26899896    -0.72244137

 SCS-MP2 correlation energy:           -0.71555907   (PS=  1.200000  PT=  0.333333)
 SCS-MP2 total energy:               -239.26211666

 MP3(D):                -0.72260273  -239.26916032    -0.00016136
 MP4(DQ):               -0.71881045  -239.26536804     0.00379228
 MP4(SDQ):              -0.72359089  -239.27014848    -0.00478044

 Norm of t1 vector:      0.05296733      S-energy:    -0.00478044      T1 diagnostic:  0.00798513

 Largest off-diagonal element in interal  block of Fock matrix:  0.13D+00
 Largest off-diagonal element in external block of Fock matrix:  0.59D+00


 Total CPU time for triples:     15.87 sec


 RESULTS
 =======

  Reference energy                   -238.546557589723
  MP4(SDQ) singlet pair energy         -0.477047245701
  MP4(SDQ) triplet pair energy         -0.241763206188
  MP4(SDQ) correlation energy          -0.723590892019

  Triples contribution                 -0.021535634292
  Total correlation energy             -0.745126526312

  MP4(SDQ) total energy              -239.270148481742
 !MP4(SDTQ) total energy             -239.291684116035

 Timing summary (sec):

 STEP                 CPU(USER)    SYS     CPU(TOT)    WALL
 Transformation          1.09      0.12      1.21      1.94
 CCSD iterations         9.96      0.03      9.99      1.51
 Triples                15.87      0.76     16.63     16.85

 Program statistics:

 Available memory in ccsd:               805305873
 Min. memory needed in ccsd:               1188137
 Max. memory used in ccsd:                 1556332
 Max. memory used in cckext:               1604021 ( 1 integral passes)



 **********************************************************************************************************************************
 DATASETS  * FILE   NREC   LENGTH (MB)   RECORD NAMES
              1      22      127.35       500      610      700      900      950      970     1000      129      960     1100   
                                          VAR    BASINP    GEOM    SYMINP    ZMAT    AOBASIS   BASIS     P2S    ABASIS      S 
                                         1400     1410     1200     1210     1080     1600     1650     1300     1700     1380   
                                           T        V       H0       H01     AOSYM     SMH    MOLCAS    ERIS     OPER     JKOP   
                                         7000     1380(1)
                                        PAPT AO   JKOP   

              2       5        0.94       700     1000      520     2100     7000   
                                         GEOM     BASIS   MCVARS     RHF     PAPT   

 PROGRAMS   *        TOTAL       MP4      PAPT    HF-SCF       INT
 CPU TIMES  *        26.62     18.43      3.05      1.79      3.21
 REAL TIME  *        31.58 SEC
 DISK USED  *       266.14 MB
 **********************************************************************************************************************************

 Dump information in style XML to xml output                                                                      

 Orbitals will not be exported.

 **********************************************************************************************************************************

 MP4/cc-pVTZ energy=   -239.291684116035

             MP4            PAPT          HF-SCF
   -239.29168412   -239.26295630   -238.54655759
 **********************************************************************************************************************************
 Molpro calculation terminated
