
 Working directory              : /home/jovyan/scratch/molpro.OyJ7hiuwWG/
 Global scratch directory       : /home/jovyan/scratch/molpro.OyJ7hiuwWG/
 Wavefunction directory         : /home/jovyan/wfu/
 Main file repository           : /home/jovyan/scratch/molpro.OyJ7hiuwWG/

 id        : cardiff

 Nodes                nprocs
 jupyter-c-2efrancisan    1
 GA implementation: MPI file
 GA implementation (serial work in mppx): MPI file

 Using customized tuning parameters: mindgm=1; mindgv=20; mindgc=4; mindgr=1; noblas=0; minvec=7
 default implementation of scratch files=df  


 Variables initialized (1031), CPU time= 0.01 sec
 
 
 
 geometry={
 6
  C 0.000000 0.509558 0.000000
  H 0.037758 1.595479 0.000000
  O -1.099586 -0.147769 0.000000
  H 1.969129 -0.087220 0.000000
  H -0.131827 -1.064473 0.000000
  N 0.988804 -0.331283 0.000000
 }
 basis=cc-pVTZ
 angstrom
 
 
 hf; papt;mp3
 
 
 
 {put,xml;noorbitals,nobasis}
 Commands initialized (841), CPU time= 0.00 sec, 704 directives.
 Default parameters read. Elapsed time= 0.08 sec

 Checking input...
 Passed
1


                                         ***  PROGRAM SYSTEM MOLPRO  ***
                                       Copyright, TTI GmbH Stuttgart, 2015
                                    Version 2023.1 linked Mon Jun  5 13:27:10 2023


 **********************************************************************************************************************************
 LABEL *                                                                                                                                                                 
  (16 PROC) 64 bit serial version                                                        DATE: 02-Aug-23          TIME: 15:44:12  
 **********************************************************************************************************************************

 SHA1:             9738a14712571edd23541b6d7c4f3a3d766f8287
 **********************************************************************************************************************************

 Memory per process:       805 MW
 Total memory per node:   1074 MW
 Total GA space:           268 MW

 GA preallocation disabled
 GA check enabled

 Geometry recognized as XYZ


 Variable memory set to 805.3 MW

 SETTING BASIS          =    CC-PVTZ


 Recomputing integrals since basis changed


 Using spherical harmonics

 Library entry C      S cc-pVTZ              selected for orbital group  1
 Library entry C      P cc-pVTZ              selected for orbital group  1
 Library entry C      D cc-pVTZ              selected for orbital group  1
 Library entry C      F cc-pVTZ              selected for orbital group  1
 Library entry H      S cc-pVTZ              selected for orbital group  2
 Library entry H      P cc-pVTZ              selected for orbital group  2
 Library entry H      D cc-pVTZ              selected for orbital group  2
 Library entry O      S cc-pVTZ              selected for orbital group  3
 Library entry O      P cc-pVTZ              selected for orbital group  3
 Library entry O      D cc-pVTZ              selected for orbital group  3
 Library entry O      F cc-pVTZ              selected for orbital group  3
 Library entry N      S cc-pVTZ              selected for orbital group  5
 Library entry N      P cc-pVTZ              selected for orbital group  5
 Library entry N      D cc-pVTZ              selected for orbital group  5
 Library entry N      F cc-pVTZ              selected for orbital group  5


 PROGRAM * SEWARD (Integral evaluation for generally contracted gaussian basis sets)     Author: Roland Lindh, 1990

 Geometry written to block  1 of record 700


 Point group  Cs  



 ATOMIC COORDINATES

 NR  ATOM    CHARGE       X              Y              Z

   1  C       6.00    0.000000000    0.962925065    0.000000000
   2  H       1.00    0.071352279    3.015018348    0.000000000
   3  O       8.00   -2.077916390   -0.279242940    0.000000000
   4  H       1.00    3.721114514   -0.164821913    0.000000000
   5  H       1.00   -0.249116926   -2.011562437    0.000000000
   6  N       7.00    1.868568751   -0.626034140    0.000000000

 Bond lengths in Bohr (Angstrom)

 1-2  2.053333385  1-3  2.420891959  1-6  2.452822972  3-5  2.519015348  4-6  1.909094687
     ( 1.086577234)     ( 1.281080855)     ( 1.297978019)     ( 1.333005516)     ( 1.010249402)

 5-6  2.530668151
     ( 1.339171914)

 Bond angles

  1-3-5   74.31885873   1-6-4  125.64321780   1-6-5   73.57189641   2-1-3  122.86217045

  2-1-6  128.38516423   3-1-6  108.75266532   3-5-6  103.35657954   4-6-5  160.78488579

 NUCLEAR CHARGE:                   24
 NUMBER OF PRIMITIVE AOS:         192
 NUMBER OF SYMMETRY AOS:          174
 NUMBER OF CONTRACTIONS:          132   (   90A'  +   42A"  )
 NUMBER OF INNER CORE ORBITALS:     0   (    0A'  +    0A"  )
 NUMBER OF OUTER CORE ORBITALS:     3   (    3A'  +    0A"  )
 NUMBER OF VALENCE ORBITALS:       15   (   12A'  +    3A"  )


 NUCLEAR REPULSION ENERGY   72.94036840


 Eigenvalues of metric

         1 0.104E-02 0.139E-02 0.185E-02 0.241E-02 0.317E-02 0.376E-02 0.486E-02 0.689E-02
         2 0.251E-01 0.353E-01 0.437E-01 0.611E-01 0.781E-01 0.883E-01 0.998E-01 0.175E+00


 Contracted 2-electron integrals neglected if value below      1.0D-11
 AO integral compression algorithm  1   Integral accuracy      1.0D-11

     95.158 MB (compressed) written to integral file ( 52.2%)


 NUMBER OF SORTED TWO-ELECTRON INTEGRALS:   19888071.     BUFFER LENGTH:  32768
 NUMBER OF SEGMENTS:   2  SEGMENT LENGTH:   15993726      RECORD LENGTH: 524288

 Memory used in sort:      16.55 MW

 SORT1 READ    22839141. AND WROTE    19462671. INTEGRALS IN     56 RECORDS. CPU TIME:     0.31 SEC, REAL TIME:     0.69 SEC
 SORT2 READ    19462671. AND WROTE    19888071. INTEGRALS IN    363 RECORDS. CPU TIME:     0.47 SEC, REAL TIME:     0.58 SEC

 FILE SIZES:   FILE 1:   125.7 MBYTE,  FILE 4:   234.9 MBYTE,   TOTAL:    360.7 MBYTE

 OPERATOR DM      FOR CENTER  0  COORDINATES:    0.000000    0.000000    0.000000


 **********************************************************************************************************************************
 DATASETS  * FILE   NREC   LENGTH (MB)   RECORD NAMES
              1      19      109.23       500      610      700      900      950      970     1000      129      960     1100   
                                          VAR    BASINP    GEOM    SYMINP    ZMAT    AOBASIS   BASIS     P2S    ABASIS      S 
                                         1400     1410     1200     1210     1080     1600     1650     1300     1700   
                                           T        V       H0       H01     AOSYM     SMH    MOLCAS    ERIS     OPER   

 PROGRAMS   *        TOTAL       INT
 CPU TIMES  *         4.30      4.17
 REAL TIME  *         6.42 SEC
 DISK USED  *       344.41 MB
 **********************************************************************************************************************************


 Program * Restricted Hartree-Fock

 Orbital guess generated from atomic densities. Full valence occupancy:   15   3

 Initial occupancy:  10   2

 NELEC=   24   SYM=1   MS2= 0   THRE=1.0D-08   THRD=3.2D-06   THRG=3.2D-06  HFMA2=F  DIIS_START=2   DIIS_MAX=10   DIIS_INCORE=F

 Level shifts:    0.00 (CLOSED)    0.00 (OPEN)    0.30 (GAP_MIN)

 ITER           ETOT              DE          GRAD        DDIFF     DIIS  NEXP   TIME(IT)  TIME(TOT)  DIAG
   1     -168.84392181    -168.84392181     0.00D+00     0.91D-01     0     0       0.16      0.31    start
   2     -168.88045041      -0.03652860     0.88D-02     0.12D-01     1     0       0.15      0.46    diag
   3     -168.90243441      -0.02198400     0.61D-02     0.50D-02     2     0       0.16      0.62    diag
   4     -168.90329166      -0.00085725     0.95D-03     0.11D-02     3     0       0.15      0.77    diag
   5     -168.90346327      -0.00017161     0.43D-03     0.49D-03     4     0       0.16      0.93    diag
   6     -168.90348698      -0.00002371     0.11D-03     0.18D-03     5     0       0.15      1.08    diag
   7     -168.90349020      -0.00000322     0.36D-04     0.75D-04     6     0       0.15      1.23    diag
   8     -168.90349042      -0.00000022     0.91D-05     0.20D-04     7     0       0.15      1.38    fixocc
   9     -168.90349044      -0.00000002     0.28D-05     0.51D-05     8     0       0.16      1.54    diag
  10     -168.90349045      -0.00000001     0.12D-05     0.32D-05     9     0       0.15      1.69    diag/orth
  11     -168.90349045      -0.00000000     0.50D-06     0.15D-05     9     0       0.15      1.84    diag
  12     -168.90349045      -0.00000000     0.15D-06     0.23D-06     0     0       0.15      1.99    diag

 Final occupancy:  10   2

 !RHF STATE 1.1 Energy               -168.903490451115
  RHF One-electron energy            -375.081299450579
  RHF Two-electron energy             133.237440601603
  RHF Kinetic energy                  168.624079985658
  RHF Nuclear energy                   72.940368397861
  RHF Virial quotient                  -1.001657002164

 !RHF STATE 1.1 Dipole moment           1.00615694     0.62192228     0.00000000
 Dipole moment /Debye                   2.55739584     1.58076877     0.00000000

 Orbital energies:

           1.1          2.1          3.1          4.1          5.1          6.1          7.1          8.1          9.1         10.1
    -20.551125   -15.565813   -11.361555    -1.413440    -1.182413    -0.836395    -0.780499    -0.624689    -0.537260    -0.458529

          11.1         12.1
      0.142689     0.163161

           1.2          2.2          3.2          4.2
     -0.586062    -0.405433     0.159092     0.433398


 HOMO      2.2    -0.405433 =     -11.0324eV
 LUMO     11.1     0.142689 =       3.8828eV
 LUMO-HOMO         0.548123 =      14.9152eV

 Orbitals saved in record  2100.2


 **********************************************************************************************************************************
 DATASETS  * FILE   NREC   LENGTH (MB)   RECORD NAMES
              1      19      109.23       500      610      700      900      950      970     1000      129      960     1100   
                                          VAR    BASINP    GEOM    SYMINP    ZMAT    AOBASIS   BASIS     P2S    ABASIS      S 
                                         1400     1410     1200     1210     1080     1600     1650     1300     1700   
                                           T        V       H0       H01     AOSYM     SMH    MOLCAS    ERIS     OPER   

              2       4        0.63       700     1000      520     2100   
                                         GEOM     BASIS   MCVARS     RHF  

 PROGRAMS   *        TOTAL    HF-SCF       INT
 CPU TIMES  *         6.30      1.99      4.17
 REAL TIME  *         8.69 SEC
 DISK USED  *       344.41 MB
 **********************************************************************************************************************************


 PROGRAM * PAPT (Closed-shell)     Authors: C. Hampel, H.-J. Werner, 1991, P.J. Knowles, 2021


 Convergence thresholds:  THRVAR = 1.00D-08  THRDEN = 1.00D-06

 Number of core orbitals:           3 (   3   0 )
 Number of closed-shell orbitals:   9 (   7   2 )
 Number of external orbitals:     120 (  80  40 )

 Molecular orbitals read from record     2100.2  Type=RHF/CANONICAL  

 Number of N-1 electron functions:               9
 Number of N-2 electron functions:              45
 Number of singly external CSFs:               640
 Number of doubly external CSFs:            302140
 Total number of CSFs:                      302781

 Length of J-op  integral file:               0.00 MB
 Length of K-op  integral file:               0.74 MB

 Integral transformation finished. Total CPU:   0.29 sec, npass=  1  Memory used:   0.58 MW

 Reference energy:                   -168.90349045

                        CORR.ENERGY   TOTAL ENERGY   ENERGY CHANGE
 MP2:                   -0.62971384  -169.53320429    -0.62971384

 SCS-MP2 correlation energy:           -0.61561608   (PS=  1.200000  PT=  0.333333)
 SCS-MP2 total energy:               -169.51910653
 Iteration:   1     0.2345D+00
 Iteration:   2     0.3659D+00
 Iteration:   3     0.7194D-01
 Iteration:   4     0.5942D-01
 Iteration:   5     0.5851D-01
 Iteration:   6     0.1627D-01
 Iteration:   7     0.1281D+00
 Iteration:   8     0.6057D-02
 Iteration:   9     0.8090D-02
 Iteration:  10     0.2948D-02
 Iteration:  11     0.1770D-02
 Iteration:  12     0.2393D-02
 Iteration:  13     0.4559D-03
 Iteration:  14     0.1307D-02
 Iteration:  15     0.1632D-03
 Iteration:  16     0.1938D-03
 Iteration:  17     0.1141D-03
 Iteration:  18     0.4306D-04
 PAPT operator written to  7000.1
 PAPT orbitals and eigenvalues written to  7000.2

 MP3(D):                -0.62722327  -169.53071372     0.00249057



 RESULTS
 =======

  Reference energy                   -168.903490451115
  MP3 singlet pair energy              -0.410615268504
  MP3 triplet pair energy              -0.216608004890
  MP3 correlation energy               -0.627223273394

 !MP3 total energy                   -169.530713724510

 Timing summary (sec):

 STEP                 CPU(USER)    SYS     CPU(TOT)    WALL
 Transformation          0.31      0.02      0.33      0.59
 CCSD iterations         8.17      0.06      8.23      2.39

 Program statistics:

 Available memory in ccsd:               805306034
 Min. memory needed in ccsd:                900943
 Max. memory used in ccsd:                 1155015
 Max. memory used in cckext:               1258241 ( 1 integral passes)



 **********************************************************************************************************************************
 DATASETS  * FILE   NREC   LENGTH (MB)   RECORD NAMES
              1      21      114.16       500      610      700      900      950      970     1000      129      960     1100   
                                          VAR    BASINP    GEOM    SYMINP    ZMAT    AOBASIS   BASIS     P2S    ABASIS      S 
                                         1400     1410     1200     1210     1080     1600     1650     1300     1700     1380   
                                           T        V       H0       H01     AOSYM     SMH    MOLCAS    ERIS     OPER     JKOP   
                                         7000   
                                        PAPT AO    

              2       5        0.96       700     1000      520     2100     7000   
                                         GEOM     BASIS   MCVARS     RHF     PAPT   

 PROGRAMS   *        TOTAL      PAPT    HF-SCF       INT
 CPU TIMES  *         8.23      1.92      1.99      4.17
 REAL TIME  *        11.84 SEC
 DISK USED  *       344.41 MB
 **********************************************************************************************************************************


 PROGRAM * MP3 (Closed-shell)     Authors: C. Hampel, H.-J. Werner, 1991, M. Deegan, P.J. Knowles, 1992


 Convergence thresholds:  THRVAR = 1.00D-08  THRDEN = 1.00D-06

 Number of core orbitals:           3 (   3   0 )
 Number of closed-shell orbitals:   9 (   7   2 )
 Number of external orbitals:     120 (  80  40 )

 Molecular orbitals read from record     7000.2  Type=PAPT/CANONICAL (state 1.1)

 Number of N-1 electron functions:               9
 Number of N-2 electron functions:              45
 Number of singly external CSFs:               640
 Number of doubly external CSFs:            302140
 Total number of CSFs:                      302781

 Length of J-op  integral file:               0.00 MB
 Length of K-op  integral file:               0.74 MB

 Integral transformation finished. Total CPU:   0.30 sec, npass=  1  Memory used:   0.58 MW
 Orbital energies read from record       7000.2  Type=PAPT/CANONICAL (state 1.1)

 Reference energy:                   -168.90349045

                        CORR.ENERGY   TOTAL ENERGY   ENERGY CHANGE
 MP2:                   -0.63277914  -169.53626959    -0.63277914

 SCS-MP2 correlation energy:           -0.62149456   (PS=  1.200000  PT=  0.333333)
 SCS-MP2 total energy:               -169.52498501

 MP3(D):                -0.63295146  -169.53644191    -0.00017232



 RESULTS
 =======

  Reference energy                   -168.903490451115
  MP3 singlet pair energy              -0.414076755526
  MP3 triplet pair energy              -0.218874706494
  MP3 correlation energy               -0.632951462020

 !MP3 total energy                   -169.536441913135

 Timing summary (sec):

 STEP                 CPU(USER)    SYS     CPU(TOT)    WALL
 Transformation          0.47      0.06      0.53      1.41
 CCSD iterations         9.14      0.04      9.18      0.71

 Program statistics:

 Available memory in ccsd:               805306034
 Min. memory needed in ccsd:                900943
 Max. memory used in ccsd:                 1155015
 Max. memory used in cckext:               1258241 ( 1 integral passes)



 **********************************************************************************************************************************
 DATASETS  * FILE   NREC   LENGTH (MB)   RECORD NAMES
              1      21      114.16       500      610      700      900      950      970     1000      129      960     1100   
                                          VAR    BASINP    GEOM    SYMINP    ZMAT    AOBASIS   BASIS     P2S    ABASIS      S 
                                         1400     1410     1200     1210     1080     1600     1650     1300     1700     1380   
                                           T        V       H0       H01     AOSYM     SMH    MOLCAS    ERIS     OPER     JKOP   
                                         7000   
                                        PAPT AO    

              2       5        0.96       700     1000      520     2100     7000   
                                         GEOM     BASIS   MCVARS     RHF     PAPT   

 PROGRAMS   *        TOTAL       MP3      PAPT    HF-SCF       INT
 CPU TIMES  *         9.36      1.13      1.92      1.99      4.17
 REAL TIME  *        14.07 SEC
 DISK USED  *       344.41 MB
 **********************************************************************************************************************************

 Dump information in style XML to xml output                                                                      

 Orbitals will not be exported.

 **********************************************************************************************************************************

 MP3/cc-pVTZ energy=   -169.536441913135

             MP3            PAPT          HF-SCF
   -169.53644191   -169.53071372   -168.90349045
 **********************************************************************************************************************************
 Molpro calculation terminated
