
 Working directory              : /home/jovyan/scratch/molpro.5OSMhNHBqY/
 Global scratch directory       : /home/jovyan/scratch/molpro.5OSMhNHBqY/
 Wavefunction directory         : /home/jovyan/wfu/
 Main file repository           : /home/jovyan/scratch/molpro.5OSMhNHBqY/

 id        : cardiff

 Nodes                nprocs
 jupyter-c-2efrancisan    1
 GA implementation: MPI file
 GA implementation (serial work in mppx): MPI file

 Using customized tuning parameters: mindgm=1; mindgv=20; mindgc=4; mindgr=1; noblas=0; minvec=7
 default implementation of scratch files=df  


 Variables initialized (1031), CPU time= 0.00 sec
 
 
 
 geometry={
            4
     N          0.44531110      0.15160583      0.00000000
     N          1.57525933      0.20103027      0.00000000
     N         -0.78577609      0.28131271      0.00000000
     H         -1.23479434     -0.63394881      0.00000000
 }
 basis=cc-pVTZ
 angstrom
 
 
 hf; ccsd(t)
 
 
 
 {put,xml;noorbitals,nobasis}
 Commands initialized (841), CPU time= 0.01 sec, 704 directives.
 Default parameters read. Elapsed time= 0.08 sec

 Checking input...
 Passed
1


                                         ***  PROGRAM SYSTEM MOLPRO  ***
                                       Copyright, TTI GmbH Stuttgart, 2015
                                    Version 2023.1 linked Mon Jun  5 13:27:10 2023


 **********************************************************************************************************************************
 LABEL *                                                                                                                                                                 
  (16 PROC) 64 bit serial version                                                        DATE: 03-Aug-23          TIME: 12:18:29  
 **********************************************************************************************************************************

 SHA1:             9738a14712571edd23541b6d7c4f3a3d766f8287
 **********************************************************************************************************************************

 Memory per process:       805 MW
 Total memory per node:   1074 MW
 Total GA space:           268 MW

 GA preallocation disabled
 GA check enabled

 Geometry recognized as XYZ


 Variable memory set to 805.3 MW

 SETTING BASIS          =    CC-PVTZ


 Recomputing integrals since basis changed


 Using spherical harmonics

 Library entry N      S cc-pVTZ              selected for orbital group  1
 Library entry N      P cc-pVTZ              selected for orbital group  1
 Library entry N      D cc-pVTZ              selected for orbital group  1
 Library entry N      F cc-pVTZ              selected for orbital group  1
 Library entry H      S cc-pVTZ              selected for orbital group  2
 Library entry H      P cc-pVTZ              selected for orbital group  2
 Library entry H      D cc-pVTZ              selected for orbital group  2


 PROGRAM * SEWARD (Integral evaluation for generally contracted gaussian basis sets)     Author: Roland Lindh, 1990

 Geometry written to block  1 of record 700


 Point group  Cs  



 ATOMIC COORDINATES

 NR  ATOM    CHARGE       X              Y              Z

   1  N       7.00    0.841516019    0.286493498    0.000000000
   2  N       7.00    2.976808709    0.379892153    0.000000000
   3  N       7.00   -1.484901605    0.531603977    0.000000000
   4  H       1.00   -2.333423123   -1.197989628    0.000000000

 Bond lengths in Bohr (Angstrom)

 1-2  2.137334363  1-3  2.339294362  3-4  1.926520907
     ( 1.131028637)     ( 1.237901266)     ( 1.019470960)

 Bond angles

  1-3-4  110.11763997   2-1-3  171.48098119

 NUCLEAR CHARGE:                   22
 NUMBER OF PRIMITIVE AOS:         158
 NUMBER OF SYMMETRY AOS:          142
 NUMBER OF CONTRACTIONS:          104   (   70A'  +   34A"  )
 NUMBER OF INNER CORE ORBITALS:     0   (    0A'  +    0A"  )
 NUMBER OF OUTER CORE ORBITALS:     3   (    3A'  +    0A"  )
 NUMBER OF VALENCE ORBITALS:       13   (   10A'  +    3A"  )


 NUCLEAR REPULSION ENERGY   61.74256809

 Eigenvalues of metric

         1 0.457E-03 0.120E-02 0.167E-02 0.267E-02 0.300E-02 0.706E-02 0.104E-01 0.182E-01
         2 0.202E-01 0.279E-01 0.431E-01 0.580E-01 0.714E-01 0.104E+00 0.167E+00 0.260E+00


 Contracted 2-electron integrals neglected if value below      1.0D-11
 AO integral compression algorithm  1   Integral accuracy      1.0D-11

     38.535 MB (compressed) written to integral file ( 52.8%)


 NUMBER OF SORTED TWO-ELECTRON INTEGRALS:    7701890.     BUFFER LENGTH:  32768
 NUMBER OF SEGMENTS:   1  SEGMENT LENGTH:    7701890      RECORD LENGTH: 524288

 Memory used in sort:       8.26 MW

 SORT1 READ     9167431. AND WROTE     7521690. INTEGRALS IN     22 RECORDS. CPU TIME:     0.11 SEC, REAL TIME:     0.30 SEC
 SORT2 READ     7521690. AND WROTE     7701890. INTEGRALS IN    147 RECORDS. CPU TIME:     0.20 SEC, REAL TIME:     0.25 SEC

 FILE SIZES:   FILE 1:    68.9 MBYTE,  FILE 4:    92.3 MBYTE,   TOTAL:    161.2 MBYTE

 OPERATOR DM      FOR CENTER  0  COORDINATES:    0.000000    0.000000    0.000000


 **********************************************************************************************************************************
 DATASETS  * FILE   NREC   LENGTH (MB)   RECORD NAMES
              1      19       60.08       500      610      700      900      950      970     1000      129      960     1100   
                                          VAR    BASINP    GEOM    SYMINP    ZMAT    AOBASIS   BASIS     P2S    ABASIS      S 
                                         1400     1410     1200     1210     1080     1600     1650     1300     1700   
                                           T        V       H0       H01     AOSYM     SMH    MOLCAS    ERIS     OPER   

 PROGRAMS   *        TOTAL       INT
 CPU TIMES  *         2.03      1.87
 REAL TIME  *         3.50 SEC
 DISK USED  *       154.15 MB
 **********************************************************************************************************************************


 Program * Restricted Hartree-Fock

 Orbital guess generated from atomic densities. Full valence occupancy:   13   3

 Initial occupancy:   9   2

 NELEC=   22   SYM=1   MS2= 0   THRE=1.0D-08   THRD=3.2D-06   THRG=3.2D-06  HFMA2=F  DIIS_START=2   DIIS_MAX=10   DIIS_INCORE=F

 Level shifts:    0.00 (CLOSED)    0.00 (OPEN)    0.30 (GAP_MIN)

 ITER           ETOT              DE          GRAD        DDIFF     DIIS  NEXP   TIME(IT)  TIME(TOT)  DIAG
   1     -163.83275036    -163.83275036     0.00D+00     0.11D+00     0     0       0.06      0.12    start
   2     -163.86722819      -0.03447782     0.12D-01     0.16D-01     1     0       0.05      0.17    diag
   3     -163.90059216      -0.03336398     0.89D-02     0.78D-02     2     0       0.07      0.24    diag
   4     -163.90179201      -0.00119985     0.13D-02     0.18D-02     3     0       0.06      0.30    diag
   5     -163.90226301      -0.00047101     0.78D-03     0.92D-03     4     0       0.05      0.35    diag
   6     -163.90240938      -0.00014636     0.25D-03     0.53D-03     5     0       0.06      0.41    diag
   7     -163.90247312      -0.00006374     0.13D-03     0.41D-03     6     0       0.06      0.47    diag
   8     -163.90249540      -0.00002228     0.71D-04     0.30D-03     7     0       0.06      0.53    fixocc
   9     -163.90249889      -0.00000349     0.29D-04     0.14D-03     8     0       0.06      0.59    diag
  10     -163.90249902      -0.00000014     0.82D-05     0.26D-04     9     0       0.05      0.64    diag/orth
  11     -163.90249903      -0.00000001     0.17D-05     0.46D-05     9     0       0.06      0.70    diag
  12     -163.90249903      -0.00000000     0.52D-06     0.14D-05     9     0       0.06      0.76    diag
  13     -163.90249903      -0.00000000     0.16D-06     0.24D-06     0     0       0.06      0.82    diag

 Final occupancy:   9   2

 !RHF STATE 1.1 Energy               -163.902499031676
  RHF One-electron energy            -344.014332634341
  RHF Two-electron energy             118.369265515474
  RHF Kinetic energy                  163.566907399536
  RHF Nuclear energy                   61.742568087191
  RHF Virial quotient                  -1.002051708609

 !RHF STATE 1.1 Dipole moment          -0.20619967    -0.65481322     0.00000000
 Dipole moment /Debye                  -0.52410730    -1.66436919     0.00000000

 Orbital energies:

           1.1          2.1          3.1          4.1          5.1          6.1          7.1          8.1          9.1         10.1
    -15.791434   -15.672987   -15.607747    -1.509114    -1.285859    -0.824497    -0.707320    -0.668555    -0.467527     0.127137

          11.1
      0.154033

           1.2          2.2          3.2          4.2
     -0.701911    -0.400950     0.170485     0.563527


 HOMO      2.2    -0.400950 =     -10.9104eV
 LUMO     10.1     0.127137 =       3.4596eV
 LUMO-HOMO         0.528087 =      14.3700eV

 Orbitals saved in record  2100.2


 **********************************************************************************************************************************
 DATASETS  * FILE   NREC   LENGTH (MB)   RECORD NAMES
              1      19       60.08       500      610      700      900      950      970     1000      129      960     1100   
                                          VAR    BASINP    GEOM    SYMINP    ZMAT    AOBASIS   BASIS     P2S    ABASIS      S 
                                         1400     1410     1200     1210     1080     1600     1650     1300     1700   
                                           T        V       H0       H01     AOSYM     SMH    MOLCAS    ERIS     OPER   

              2       4        0.53       700     1000      520     2100   
                                         GEOM     BASIS   MCVARS     RHF  

 PROGRAMS   *        TOTAL    HF-SCF       INT
 CPU TIMES  *         2.85      0.82      1.87
 REAL TIME  *         4.47 SEC
 DISK USED  *       154.15 MB
 **********************************************************************************************************************************


 PROGRAM * CCSD (Closed-shell coupled cluster)     Authors: C. Hampel, H.-J. Werner, 1991, M. Deegan, P.J. Knowles, 1992


 Convergence thresholds:  THRVAR = 1.00D-08  THRDEN = 1.00D-06

 CCSD(T)     terms to be evaluated (factor= 1.000)


 Number of core orbitals:           3 (   3   0 )
 Number of closed-shell orbitals:   8 (   6   2 )
 Number of external orbitals:      93 (  61  32 )

 Molecular orbitals read from record     2100.2  Type=RHF/CANONICAL  

 Number of N-1 electron functions:               8
 Number of N-2 electron functions:              36
 Number of singly external CSFs:               430
 Number of doubly external CSFs:            142120
 Total number of CSFs:                      142551

 Length of J-op  integral file:               0.00 MB
 Length of K-op  integral file:               0.48 MB
 Length of 3-ext integral record:             0.00 MB

 Memory could be reduced to 4.74 Mwords without degradation in triples

 Integral transformation finished. Total CPU:   0.23 sec, npass=  1  Memory used:   1.66 MW

 Reference energy:                   -163.90249903

 MP2 singlet pair energy:              -0.36967657
 MP2 triplet pair energy:              -0.24325006
 MP2 correlation energy:               -0.61292664
 MP2 total energy:                   -164.51542567

 SCS-MP2 correlation energy:           -0.59496748   (PS=  1.200000  PT=  0.333333)
 SCS-MP2 total energy:               -164.49746651

 ITER.      SQ.NORM     CORR.ENERGY   TOTAL ENERGY   ENERGY CHANGE        DEN1      VAR(S)    VAR(P)  DIIS     TIME  TIME/IT
   1      1.17411423    -0.60396076  -164.50645979     0.00896588     0.03550890  0.69D-02  0.71D-02  1  1     3.64     0.32
   2      1.18908796    -0.60147379  -164.50397283     0.00248696    -0.01901574  0.18D-03  0.66D-03  2  2     3.96     0.33
   3      1.19642875    -0.60176482  -164.50426385    -0.00029103    -0.00343491  0.19D-03  0.60D-04  3  3     4.27     0.33
   4      1.19965760    -0.60167730  -164.50417633     0.00008752    -0.00113956  0.24D-04  0.14D-04  4  4     4.58     0.33
   5      1.20187624    -0.60169821  -164.50419725    -0.00002091    -0.00054735  0.56D-05  0.14D-05  5  5     4.89     0.34
   6      1.20252239    -0.60166821  -164.50416724     0.00003000    -0.00009008  0.94D-06  0.26D-06  6  6     5.21     0.34
   7      1.20274203    -0.60165985  -164.50415888     0.00000836    -0.00001765  0.22D-06  0.67D-07  6  2     5.52     0.34
   8      1.20280270    -0.60165792  -164.50415695     0.00000193     0.00000196  0.44D-07  0.13D-07  6  1     5.84     0.34
   9      1.20282980    -0.60165734  -164.50415637     0.00000058     0.00000012  0.56D-08  0.24D-08  6  3     6.15     0.34
  10      1.20283139    -0.60165806  -164.50415709    -0.00000072     0.00000131  0.63D-09  0.39D-09  6  4     6.46     0.34

 Norm of t1 vector:      0.11117055      S-energy:     0.00000037      T1 diagnostic:  0.01965236
                                                                       D1 diagnostic:  0.05267538
                                                                       D2 diagnostic:  0.18426831 (external, symmetry=2)

 Doubles amplitudes (print threshold =  0.500E-01):

         I         J         SYM. A    SYM. B    A         B      T(IJ, AB)

         7         7         2         2         1         1     -0.05447195
         8         8         2         2         1         1     -0.09047100


 Total CPU time for triples:      2.30 sec


 RESULTS
 =======

  Reference energy                   -163.902499031676
  CCSD singlet pair energy             -0.397327588300
  CCSD triplet pair energy             -0.204330844581
  CCSD correlation energy              -0.601658058113

  Triples (T) contribution             -0.034302415335
  Total correlation energy             -0.635960473448

  CCSD total energy                  -164.504157089789
  CCSD[T] energy                     -164.540523467960
  CCSD-T energy                      -164.537712911520
 !CCSD(T) total energy               -164.538459505124

 Timing summary (sec):

 STEP                 CPU(USER)    SYS     CPU(TOT)    WALL
 Transformation          0.24      0.04      0.28      0.61
 CCSD iterations         6.23      0.24      6.47      3.40
 Triples                 2.30      0.11      2.41      2.43

 Program statistics:

 Available memory in ccsd:               805306103
 Min. memory needed in ccsd:                451872
 Max. memory used in ccsd:                  567174
 Max. memory used in cckext:                643028 (10 integral passes)



 **********************************************************************************************************************************
 DATASETS  * FILE   NREC   LENGTH (MB)   RECORD NAMES
              1      20       75.12       500      610      700      900      950      970     1000      129      960     1100   
                                          VAR    BASINP    GEOM    SYMINP    ZMAT    AOBASIS   BASIS     P2S    ABASIS      S 
                                         1400     1410     1200     1210     1080     1600     1650     1300     1700     1380   
                                           T        V       H0       H01     AOSYM     SMH    MOLCAS    ERIS     OPER     JKOP   

              2       4        0.53       700     1000      520     2100   
                                         GEOM     BASIS   MCVARS     RHF  

 PROGRAMS   *        TOTAL   CCSD(T)    HF-SCF       INT
 CPU TIMES  *         8.56      5.71      0.82      1.87
 REAL TIME  *        10.95 SEC
 DISK USED  *       154.15 MB
 **********************************************************************************************************************************

 Dump information in style XML to xml output                                                                      

 Orbitals will not be exported.

 **********************************************************************************************************************************

 CCSD(T)/cc-pVTZ energy=   -164.538459505124

         CCSD(T)          HF-SCF
   -164.53845951   -163.90249903
 **********************************************************************************************************************************
 Molpro calculation terminated
