
 Working directory              : /home/jovyan/scratch/molpro.h52F3xQbGY/
 Global scratch directory       : /home/jovyan/scratch/molpro.h52F3xQbGY/
 Wavefunction directory         : /home/jovyan/wfu/
 Main file repository           : /home/jovyan/scratch/molpro.h52F3xQbGY/

 id        : cardiff

 Nodes                nprocs
 jupyter-c-2efrancisan    1
 GA implementation: MPI file
 GA implementation (serial work in mppx): MPI file

 Using customized tuning parameters: mindgm=1; mindgv=20; mindgc=4; mindgr=1; noblas=0; minvec=7
 default implementation of scratch files=df  


 Variables initialized (1031), CPU time= 0.01 sec
 
 
 
 geometry={
 8
  C -0.069675 0.426757 -0.000517
  H -0.029832 1.509908 -0.008099
  C -1.249182 -0.196033 0.013868
  H -1.330339 -1.275694 0.016609
  H -2.164964 0.373561 0.006734
  H 1.220598 -1.153069 0.137248
  N 1.181782 -0.169417 -0.079545
  H 1.945210 0.346868 0.324216
 }
 basis=cc-pVDZ
 angstrom
 
 
 hf
 
 
 
 {put,xml;noorbitals,nobasis}
 Commands initialized (841), CPU time= 0.01 sec, 704 directives.
 Default parameters read. Elapsed time= 0.08 sec

 Checking input...
 Passed
1


                                         ***  PROGRAM SYSTEM MOLPRO  ***
                                       Copyright, TTI GmbH Stuttgart, 2015
                                    Version 2023.1 linked Mon Jun  5 13:27:10 2023


 **********************************************************************************************************************************
 LABEL *                                                                                                                                                                 
  (16 PROC) 64 bit serial version                                                        DATE: 02-Aug-23          TIME: 15:31:34  
 **********************************************************************************************************************************

 SHA1:             9738a14712571edd23541b6d7c4f3a3d766f8287
 **********************************************************************************************************************************

 Memory per process:       805 MW
 Total memory per node:   1074 MW
 Total GA space:           268 MW

 GA preallocation disabled
 GA check enabled

 Geometry recognized as XYZ


 Variable memory set to 805.3 MW

 SETTING BASIS          =    CC-PVDZ


 Recomputing integrals since basis changed


 Using spherical harmonics

 Library entry C      S cc-pVDZ              selected for orbital group  1
 Library entry C      P cc-pVDZ              selected for orbital group  1
 Library entry C      D cc-pVDZ              selected for orbital group  1
 Library entry H      S cc-pVDZ              selected for orbital group  2
 Library entry H      P cc-pVDZ              selected for orbital group  2
 Library entry N      S cc-pVDZ              selected for orbital group  5
 Library entry N      P cc-pVDZ              selected for orbital group  5
 Library entry N      D cc-pVDZ              selected for orbital group  5


 PROGRAM * SEWARD (Integral evaluation for generally contracted gaussian basis sets)     Author: Roland Lindh, 1990

 Geometry written to block  1 of record 700


 Point group  C1  



 ATOMIC COORDINATES

 NR  ATOM    CHARGE       X              Y              Z

   1  C       6.00   -0.131666668    0.806453852   -0.000976988
   2  H       1.00   -0.056374310    2.853312593   -0.015304892
   3  C       6.00   -2.360611860   -0.370448681    0.026206722
   4  H       1.00   -2.513976363   -2.410712279    0.031386461
   5  H       1.00   -4.091189030    0.705927981    0.012725416
   6  H       1.00    2.306595928   -2.178984613    0.259361131
   7  N       7.00    2.233244319   -0.320151731   -0.150318265
   8  H       1.00    3.675914155    0.655485521    0.612679445

 Bond lengths in Bohr (Angstrom)

 1-2  2.048293176  1-3  2.520721166  1-7  2.623803905  3-4  2.046026160  3-5  2.038054417
     ( 1.083910070)     ( 1.333908196)     ( 1.388457232)     ( 1.082710417)     ( 1.078491952)

 6-7  1.904856254  7-8  1.901402064
     ( 1.008006520)     ( 1.006178641)

 Bond angles

  1-3-4  122.13286458   1-3-5  120.27754262   1-7-6  116.19778709   1-7-8  116.14943999

  2-1-3  119.94334470   2-1-7  113.30017472   3-1-7  126.66534437   4-3-5  117.58215318

  6-7-8  112.65590079

 NUCLEAR CHARGE:                   24
 NUMBER OF PRIMITIVE AOS:         116
 NUMBER OF SYMMETRY AOS:          113
 NUMBER OF CONTRACTIONS:           67   (   67A   )
 NUMBER OF INNER CORE ORBITALS:     0   (    0A   )
 NUMBER OF OUTER CORE ORBITALS:     3   (    3A   )
 NUMBER OF VALENCE ORBITALS:       17   (   17A   )


 NUCLEAR REPULSION ENERGY   71.64606044

 Eigenvalues of metric

         1 0.266E-02 0.575E-02 0.143E-01 0.198E-01 0.248E-01 0.287E-01 0.329E-01 0.365E-01


 Contracted 2-electron integrals neglected if value below      1.0D-11
 AO integral compression algorithm  1   Integral accuracy      1.0D-11

     13.369 MB (compressed) written to integral file ( 54.3%)


 NUMBER OF SORTED TWO-ELECTRON INTEGRALS:    2595781.     BUFFER LENGTH:  32768
 NUMBER OF SEGMENTS:   1  SEGMENT LENGTH:    2595781      RECORD LENGTH: 524288

 Memory used in sort:       3.15 MW

 SORT1 READ     3033834. AND WROTE     2561021. INTEGRALS IN      8 RECORDS. CPU TIME:     0.04 SEC, REAL TIME:     0.12 SEC
 SORT2 READ     2561021. AND WROTE     2595781. INTEGRALS IN     51 RECORDS. CPU TIME:     0.08 SEC, REAL TIME:     0.10 SEC

 FILE SIZES:   FILE 1:    43.6 MBYTE,  FILE 4:    33.6 MBYTE,   TOTAL:     77.3 MBYTE

 OPERATOR DM      FOR CENTER  0  COORDINATES:    0.000000    0.000000    0.000000


 **********************************************************************************************************************************
 DATASETS  * FILE   NREC   LENGTH (MB)   RECORD NAMES
              1      19       39.55       500      610      700      900      950      970     1000      129      960     1100   
                                          VAR    BASINP    GEOM    SYMINP    ZMAT    AOBASIS   BASIS     P2S    ABASIS      S 
                                         1400     1410     1200     1210     1080     1600     1650     1300     1700   
                                           T        V       H0       H01     AOSYM     SMH    MOLCAS    ERIS     OPER   

 PROGRAMS   *        TOTAL       INT
 CPU TIMES  *         1.09      0.96
 REAL TIME  *         2.29 SEC
 DISK USED  *        74.13 MB
 **********************************************************************************************************************************


 Program * Restricted Hartree-Fock

 Orbital guess generated from atomic densities. Full valence occupancy:   20

 Initial occupancy:  12

 NELEC=   24   SYM=1   MS2= 0   THRE=1.0D-08   THRD=3.2D-06   THRG=3.2D-06  HFMA2=F  DIIS_START=2   DIIS_MAX=10   DIIS_INCORE=F

 Level shifts:    0.00 (CLOSED)    0.00 (OPEN)    0.30 (GAP_MIN)

 ITER           ETOT              DE          GRAD        DDIFF     DIIS  NEXP   TIME(IT)  TIME(TOT)  DIAG
   1     -133.03193782    -133.03193782     0.00D+00     0.13D+00     0     0       0.03      0.06    start
   2     -133.07232685      -0.04038903     0.70D-02     0.16D-01     1     0       0.03      0.09    diag
   3     -133.07773820      -0.00541135     0.27D-02     0.50D-02     2     0       0.02      0.11    diag
   4     -133.07851178      -0.00077358     0.78D-03     0.18D-02     3     0       0.03      0.14    diag
   5     -133.07857609      -0.00006431     0.26D-03     0.45D-03     4     0       0.03      0.17    diag
   6     -133.07858760      -0.00001151     0.74D-04     0.21D-03     5     0       0.02      0.19    diag
   7     -133.07858892      -0.00000132     0.27D-04     0.75D-04     6     0       0.03      0.22    diag
   8     -133.07858902      -0.00000010     0.78D-05     0.23D-04     7     0       0.03      0.25    fixocc
   9     -133.07858903      -0.00000001     0.26D-05     0.77D-05     8     0       0.03      0.28    diag
  10     -133.07858903      -0.00000000     0.97D-06     0.30D-05     9     0       0.02      0.30    diag/orth
  11     -133.07858903      -0.00000000     0.20D-06     0.43D-06     0     0       0.03      0.33    diag

 Final occupancy:  12

 !RHF STATE 1.1 Energy               -133.078589031958
  RHF One-electron energy            -321.024615856323
  RHF Two-electron energy             116.299966379643
  RHF Kinetic energy                  132.913616215770
  RHF Nuclear energy                   71.646060444721
  RHF Virial quotient                  -1.001241203278

 !RHF STATE 1.1 Dipole moment           0.51720229     0.03910344     0.37753202
 Dipole moment /Debye                   1.31459709     0.09939104     0.95959067

 Orbital energies:

           1.1          2.1          3.1          4.1          5.1          6.1          7.1          8.1          9.1         10.1
    -15.561418   -11.269129   -11.199227    -1.205182    -0.990020    -0.784882    -0.694179    -0.630811    -0.566657    -0.512339

          11.1         12.1         13.1         14.1
     -0.488256    -0.310241     0.184976     0.205519


 HOMO     12.1    -0.310241 =      -8.4421eV
 LUMO     13.1     0.184976 =       5.0335eV
 LUMO-HOMO         0.495217 =      13.4755eV

 Orbitals saved in record  2100.2


 **********************************************************************************************************************************
 DATASETS  * FILE   NREC   LENGTH (MB)   RECORD NAMES
              1      19       39.55       500      610      700      900      950      970     1000      129      960     1100   
                                          VAR    BASINP    GEOM    SYMINP    ZMAT    AOBASIS   BASIS     P2S    ABASIS      S 
                                         1400     1410     1200     1210     1080     1600     1650     1300     1700   
                                           T        V       H0       H01     AOSYM     SMH    MOLCAS    ERIS     OPER   

              2       4        0.57       700     1000      520     2100   
                                         GEOM     BASIS   MCVARS     RHF  

 PROGRAMS   *        TOTAL    HF-SCF       INT
 CPU TIMES  *         1.43      0.33      0.96
 REAL TIME  *         2.74 SEC
 DISK USED  *        74.13 MB
 **********************************************************************************************************************************

 Dump information in style XML to xml output                                                                      

 Orbitals will not be exported.

 **********************************************************************************************************************************

 HF/cc-pVDZ energy=   -133.078589031958

          HF-SCF
   -133.07858903
 **********************************************************************************************************************************
 Molpro calculation terminated
