
 Working directory              : /home/jovyan/scratch/molpro.fpOzv00ag4/
 Global scratch directory       : /home/jovyan/scratch/molpro.fpOzv00ag4/
 Wavefunction directory         : /home/jovyan/wfu/
 Main file repository           : /home/jovyan/scratch/molpro.fpOzv00ag4/

 id        : cardiff

 Nodes                nprocs
 jupyter-c-2efrancisan    1
 GA implementation: MPI file
 GA implementation (serial work in mppx): MPI file

 Using customized tuning parameters: mindgm=1; mindgv=20; mindgc=4; mindgr=1; noblas=0; minvec=7
 default implementation of scratch files=df  


 Variables initialized (1031), CPU time= 0.01 sec
 
 
 
 geometry={
 8
  4HF-TS (Full point group D4h)
  H 0.000000 1.264867 0.000000
  H 1.264867 0.000000 0.000000
  H 0.000000 -1.264867 0.000000
  H -1.264867 0.000000 0.000000
  F 1.142134 1.142134 0.000000
  F 1.142134 -1.142134 0.000000
  F -1.142134 -1.142134 0.000000
  F -1.142134 1.142134 0.000000
 }
 basis=cc-pVDZ
 angstrom
 
 
 hf; mp3
 
 
 
 {put,xml;noorbitals,nobasis}
 Commands initialized (841), CPU time= 0.01 sec, 704 directives.
 Default parameters read. Elapsed time= 0.08 sec

 Checking input...
 Passed
1


                                         ***  PROGRAM SYSTEM MOLPRO  ***
                                       Copyright, TTI GmbH Stuttgart, 2015
                                    Version 2023.1 linked Mon Jun  5 13:27:10 2023


 **********************************************************************************************************************************
 LABEL *                                                                                                                                                                 
  (16 PROC) 64 bit serial version                                                        DATE: 03-Aug-23          TIME: 12:39:35  
 **********************************************************************************************************************************

 SHA1:             9738a14712571edd23541b6d7c4f3a3d766f8287
 **********************************************************************************************************************************

 Memory per process:       805 MW
 Total memory per node:   1074 MW
 Total GA space:           268 MW

 GA preallocation disabled
 GA check enabled

 Geometry recognized as XYZ


 Variable memory set to 805.3 MW

 SETTING BASIS          =    CC-PVDZ


 Recomputing integrals since basis changed


 Using spherical harmonics

 Library entry H      S cc-pVDZ              selected for orbital group  1
 Library entry H      P cc-pVDZ              selected for orbital group  1
 Library entry F      S cc-pVDZ              selected for orbital group  2
 Library entry F      P cc-pVDZ              selected for orbital group  2
 Library entry F      D cc-pVDZ              selected for orbital group  2


 PROGRAM * SEWARD (Integral evaluation for generally contracted gaussian basis sets)     Author: Roland Lindh, 1990

 Geometry written to block  1 of record 700


 Point group  D2h 



 ATOMIC COORDINATES

 NR  ATOM    CHARGE       X              Y              Z

   1  H       1.00    0.000000000    2.390252214    0.000000000
   2  H       1.00    0.000000000   -2.390252214    0.000000000
   3  H       1.00    2.390252214    0.000000000    0.000000000
   4  H       1.00   -2.390252214    0.000000000    0.000000000
   5  F       9.00    2.158320458    2.158320458    0.000000000
   6  F       9.00    2.158320458   -2.158320458    0.000000000
   7  F       9.00   -2.158320458   -2.158320458    0.000000000
   8  F       9.00   -2.158320458    2.158320458    0.000000000

 Bond lengths in Bohr (Angstrom)

 1-5  2.170746309  1-8  2.170746309  2-6  2.170746309  2-7  2.170746309  3-5  2.170746309
     ( 1.148709477)     ( 1.148709477)     ( 1.148709477)     ( 1.148709477)     ( 1.148709477)

 3-6  2.170746309  4-7  2.170746309  4-8  2.170746309
     ( 1.148709477)     ( 1.148709477)     ( 1.148709477)

 Bond angles

  1-5-3  102.26686399   1-8-4  102.26686399   2-6-3  102.26686399   2-7-4  102.26686399

  5-1-8  167.73313601   5-3-6  167.73313601   6-2-7  167.73313601   7-4-8  167.73313601

 NUCLEAR CHARGE:                   40
 NUMBER OF PRIMITIVE AOS:         136
 NUMBER OF SYMMETRY AOS:          132
 NUMBER OF CONTRACTIONS:           76   (   16Ag  +   14B3u +   14B2u +   12B1g +    6B1u +    5B2g +    5B3g +    4Au  )
 NUMBER OF INNER CORE ORBITALS:     0   (    0Ag  +    0B3u +    0B2u +    0B1g +    0B1u +    0B2g +    0B3g +    0Au  )
 NUMBER OF OUTER CORE ORBITALS:     4   (    1Ag  +    1B3u +    1B2u +    1B1g +    0B1u +    0B2g +    0B3g +    0Au  )
 NUMBER OF VALENCE ORBITALS:       20   (    5Ag  +    4B3u +    4B2u +    3B1g +    1B1u +    1B2g +    1B3g +    1Au  )


 NUCLEAR REPULSION ENERGY  150.66635073


 Eigenvalues of metric

         1 0.196E-01 0.510E-01 0.624E-01 0.648E-01 0.197E+00 0.351E+00 0.588E+00 0.743E+00
         2 0.207E-01 0.552E-01 0.106E+00 0.182E+00 0.239E+00 0.421E+00 0.726E+00 0.100E+01
         3 0.207E-01 0.552E-01 0.106E+00 0.182E+00 0.239E+00 0.421E+00 0.726E+00 0.100E+01
         4 0.253E-01 0.131E+00 0.158E+00 0.234E+00 0.245E+00 0.999E+00 0.100E+01 0.103E+01
         5 0.182E+00 0.647E+00 0.781E+00 0.105E+01 0.119E+01 0.225E+01
         6 0.188E+00 0.711E+00 0.100E+01 0.109E+01 0.201E+01
         7 0.188E+00 0.711E+00 0.100E+01 0.109E+01 0.201E+01
         8 0.193E+00 0.100E+01 0.100E+01 0.171E+01


 Contracted 2-electron integrals neglected if value below      1.0D-11
 AO integral compression algorithm  1   Integral accuracy      1.0D-11

     5.243 MB (compressed) written to integral file ( 57.6%)


 NUMBER OF SORTED TWO-ELECTRON INTEGRALS:     594791.     BUFFER LENGTH:  32768
 NUMBER OF SEGMENTS:   1  SEGMENT LENGTH:     594791      RECORD LENGTH: 524288

 Memory used in sort:       1.15 MW

 SORT1 READ     1082436. AND WROTE      593525. INTEGRALS IN      2 RECORDS. CPU TIME:     0.04 SEC, REAL TIME:     3.16 SEC
 SORT2 READ      593525. AND WROTE      594791. INTEGRALS IN     20 RECORDS. CPU TIME:     0.06 SEC, REAL TIME:     0.06 SEC

 FILE SIZES:   FILE 1:    35.5 MBYTE,  FILE 4:     8.5 MBYTE,   TOTAL:     44.0 MBYTE

 OPERATOR DM      FOR CENTER  0  COORDINATES:    0.000000    0.000000    0.000000


 **********************************************************************************************************************************
 DATASETS  * FILE   NREC   LENGTH (MB)   RECORD NAMES
              1      19       31.50       500      610      700      900      950      970     1000      129      960     1100   
                                          VAR    BASINP    GEOM    SYMINP    ZMAT    AOBASIS   BASIS     P2S    ABASIS      S 
                                         1400     1410     1200     1210     1080     1600     1650     1300     1700   
                                           T        V       H0       H01     AOSYM     SMH    MOLCAS    ERIS     OPER   

 PROGRAMS   *        TOTAL       INT
 CPU TIMES  *         1.11      0.98
 REAL TIME  *         9.77 SEC
 DISK USED  *        42.37 MB
 **********************************************************************************************************************************


 Program * Restricted Hartree-Fock

 Orbital guess generated from atomic densities. Full valence occupancy:    6   5   5   4   1   1   1   1


 Initial occupancy:   4   4   4   4   1   1   1   1

 NELEC=   40   SYM=1   MS2= 0   THRE=1.0D-08   THRD=3.2D-06   THRG=3.2D-06  HFMA2=F  DIIS_START=2   DIIS_MAX=10   DIIS_INCORE=F

 Level shifts:    0.00 (CLOSED)    0.00 (OPEN)    0.30 (GAP_MIN)

 ITER           ETOT              DE          GRAD        DDIFF     DIIS  NEXP   TIME(IT)  TIME(TOT)  DIAG
   1     -400.02351181    -400.02351181     0.00D+00     0.39D+00     0     0       0.00      0.01    start
   2     -400.06892597      -0.04541416     0.21D-01     0.34D-01     1     0       0.00      0.01    diag
   3     -400.07687517      -0.00794920     0.90D-02     0.11D-01     2     0       0.01      0.02    diag
   4     -400.07706965      -0.00019448     0.12D-02     0.16D-02     3     0       0.00      0.02    diag
   5     -400.07707765      -0.00000800     0.20D-03     0.36D-03     4     0       0.00      0.02    diag
   6     -400.07707800      -0.00000035     0.33D-04     0.63D-04     5     0       0.01      0.03    diag
   7     -400.07707801      -0.00000001     0.63D-05     0.14D-04     6     0       0.00      0.03    diag
   8     -400.07707801      -0.00000000     0.58D-06     0.13D-05     7     0       0.01      0.04    fixocc
   9     -400.07707801      -0.00000000     0.75D-07     0.12D-06     0     0       0.00      0.04    diag

 Final occupancy:   4   4   4   4   1   1   1   1

 !RHF STATE 1.1 Energy               -400.077078012311
  RHF One-electron energy            -860.737070828648
  RHF Two-electron energy             309.993642090575
  RHF Kinetic energy                  399.954441574343
  RHF Nuclear energy                  150.666350725761
  RHF Virial quotient                  -1.000306626018

 !RHF STATE 1.1 Dipole moment           0.00000000     0.00000000     0.00000000
 Dipole moment /Debye                   0.00000000     0.00000000     0.00000000

 Orbital energies:

           1.1          2.1          3.1          4.1          5.1          6.1
    -26.321434    -1.664213    -0.873336    -0.804578     0.223814     0.397847

           1.2          2.2          3.2          4.2          5.2          6.2
    -26.321454    -1.622362    -0.815830    -0.652237     0.324528     0.727249

           1.3          2.3          3.3          4.3          5.3          6.3
    -26.321454    -1.622362    -0.815830    -0.652237     0.324528     0.727249

           1.4          2.4          3.4          4.4          5.4          6.4
    -26.321468    -1.579398    -0.635027    -0.634147     1.451083     1.492150

           1.5          2.5          3.5
     -0.700882     1.195882     1.407161

           1.6          2.6          3.6
     -0.678992     1.278388     1.699037

           1.7          2.7          3.7
     -0.678992     1.278388     1.699037

           1.8          2.8          3.8
     -0.658658     1.517905     3.923528


 HOMO      4.4    -0.634147 =     -17.2560eV
 LUMO      5.1     0.223814 =       6.0903eV
 LUMO-HOMO         0.857961 =      23.3463eV

 Orbitals saved in record  2100.2


 **********************************************************************************************************************************
 DATASETS  * FILE   NREC   LENGTH (MB)   RECORD NAMES
              1      19       31.50       500      610      700      900      950      970     1000      129      960     1100   
                                          VAR    BASINP    GEOM    SYMINP    ZMAT    AOBASIS   BASIS     P2S    ABASIS      S 
                                         1400     1410     1200     1210     1080     1600     1650     1300     1700   
                                           T        V       H0       H01     AOSYM     SMH    MOLCAS    ERIS     OPER   

              2       4        0.52       700     1000      520     2100   
                                         GEOM     BASIS   MCVARS     RHF  

 PROGRAMS   *        TOTAL    HF-SCF       INT
 CPU TIMES  *         1.15      0.04      0.98
 REAL TIME  *        10.02 SEC
 DISK USED  *        42.37 MB
 **********************************************************************************************************************************


 PROGRAM * MP3 (Closed-shell)     Authors: C. Hampel, H.-J. Werner, 1991, M. Deegan, P.J. Knowles, 1992


 Convergence thresholds:  THRVAR = 1.00D-08  THRDEN = 1.00D-06

 Number of core orbitals:           4 (   1   1   1   1   0   0   0   0 )
 Number of closed-shell orbitals:  16 (   3   3   3   3   1   1   1   1 )
 Number of external orbitals:      56 (  12  10  10   8   5   4   4   3 )

 Molecular orbitals read from record     2100.2  Type=RHF/CANONICAL  

 Number of N-1 electron functions:              16
 Number of N-2 electron functions:             136
 Number of singly external CSFs:               136
 Number of doubly external CSFs:             52928
 Total number of CSFs:                       53065

 Length of J-op  integral file:               0.00 MB
 Length of K-op  integral file:               0.12 MB

 Integral transformation finished. Total CPU:   0.01 sec, npass=  1  Memory used:   0.16 MW

 Reference energy:                   -400.07707801

                        CORR.ENERGY   TOTAL ENERGY   ENERGY CHANGE
 MP2:                   -0.85237020  -400.92944822    -0.85237020

 SCS-MP2 correlation energy:           -0.82089649   (PS=  1.200000  PT=  0.333333)
 SCS-MP2 total energy:               -400.89797451

 MP3(D):                -0.85171922  -400.92879723     0.00065099



 RESULTS
 =======

  Reference energy                   -400.077078012311
  MP3 singlet pair energy              -0.534351356648
  MP3 triplet pair energy              -0.317367860625
  MP3 correlation energy               -0.851719217273

 !MP3 total energy                   -400.928797229585

 Timing summary (sec):

 STEP                 CPU(USER)    SYS     CPU(TOT)    WALL
 Transformation          0.01      0.00      0.01      0.14
 CCSD iterations         1.49      0.02      1.51      0.21

 Program statistics:

 Available memory in ccsd:               805305340
 Min. memory needed in ccsd:                158559
 Max. memory used in ccsd:                  202119
 Max. memory used in cckext:                255712 ( 1 integral passes)



 **********************************************************************************************************************************
 DATASETS  * FILE   NREC   LENGTH (MB)   RECORD NAMES
              1      20       32.72       500      610      700      900      950      970     1000      129      960     1100   
                                          VAR    BASINP    GEOM    SYMINP    ZMAT    AOBASIS   BASIS     P2S    ABASIS      S 
                                         1400     1410     1200     1210     1080     1600     1650     1300     1700     1380   
                                           T        V       H0       H01     AOSYM     SMH    MOLCAS    ERIS     OPER     JKOP   

              2       4        0.52       700     1000      520     2100   
                                         GEOM     BASIS   MCVARS     RHF  

 PROGRAMS   *        TOTAL       MP3    HF-SCF       INT
 CPU TIMES  *         1.31      0.16      0.04      0.98
 REAL TIME  *        10.43 SEC
 DISK USED  *        42.37 MB
 **********************************************************************************************************************************

 Dump information in style XML to xml output                                                                      

 Orbitals will not be exported.

 **********************************************************************************************************************************

 MP3/cc-pVDZ energy=   -400.928797229585

             MP3          HF-SCF
   -400.92879723   -400.07707801
 **********************************************************************************************************************************
 Molpro calculation terminated
