
 Working directory              : /home/jovyan/scratch/molpro.hIsVoi4IIn/
 Global scratch directory       : /home/jovyan/scratch/molpro.hIsVoi4IIn/
 Wavefunction directory         : /home/jovyan/wfu/
 Main file repository           : /home/jovyan/scratch/molpro.hIsVoi4IIn/

 id        : cardiff

 Nodes                nprocs
 jupyter-c-2efrancisan    1
 GA implementation: MPI file
 GA implementation (serial work in mppx): MPI file

 Using customized tuning parameters: mindgm=1; mindgv=20; mindgc=4; mindgr=1; noblas=0; minvec=7
 default implementation of scratch files=df  


 Variables initialized (1031), CPU time= 0.00 sec
 
 
 
 geometry={
 5
    N   -0.03584975865471     -0.04327420043232     -0.01909653330203
    O   -0.00506609630306      0.04228356956699      1.40258952423515
    H   0.93668394242907     -0.00324232973676     -0.29970354802110
    H   -0.45177475304937      0.83035713913816     -0.31299415647016
    H   -0.41664833442194     -0.77876717853606      1.67387371355814
 }
 basis=cc-pVTZ
 angstrom
 
 
 hf; mp4
 
 
 
 {put,xml;noorbitals,nobasis}
 Commands initialized (841), CPU time= 0.01 sec, 704 directives.
 Default parameters read. Elapsed time= 0.08 sec

 Checking input...
 Passed
1


                                         ***  PROGRAM SYSTEM MOLPRO  ***
                                       Copyright, TTI GmbH Stuttgart, 2015
                                    Version 2023.1 linked Mon Jun  5 13:27:10 2023


 **********************************************************************************************************************************
 LABEL *                                                                                                                                                                 
  (16 PROC) 64 bit serial version                                                        DATE: 02-Aug-23          TIME: 15:34:10  
 **********************************************************************************************************************************

 SHA1:             9738a14712571edd23541b6d7c4f3a3d766f8287
 **********************************************************************************************************************************

 Memory per process:       805 MW
 Total memory per node:   1074 MW
 Total GA space:           268 MW

 GA preallocation disabled
 GA check enabled

 Geometry recognized as XYZ


 Variable memory set to 805.3 MW

 SETTING BASIS          =    CC-PVTZ


 Recomputing integrals since basis changed


 Using spherical harmonics

 Library entry N      S cc-pVTZ              selected for orbital group  1
 Library entry N      P cc-pVTZ              selected for orbital group  1
 Library entry N      D cc-pVTZ              selected for orbital group  1
 Library entry N      F cc-pVTZ              selected for orbital group  1
 Library entry O      S cc-pVTZ              selected for orbital group  2
 Library entry O      P cc-pVTZ              selected for orbital group  2
 Library entry O      D cc-pVTZ              selected for orbital group  2
 Library entry O      F cc-pVTZ              selected for orbital group  2
 Library entry H      S cc-pVTZ              selected for orbital group  3
 Library entry H      P cc-pVTZ              selected for orbital group  3
 Library entry H      D cc-pVTZ              selected for orbital group  3


 PROGRAM * SEWARD (Integral evaluation for generally contracted gaussian basis sets)     Author: Roland Lindh, 1990

 Geometry written to block  1 of record 700


 Point group  C1  



 ATOMIC COORDINATES

 NR  ATOM    CHARGE       X              Y              Z

   1  N       7.00   -0.067746225   -0.081776387   -0.036087218
   2  O       8.00   -0.009573535    0.079904366    2.650510066
   3  H       1.00    1.770076117   -0.006127115   -0.566357624
   4  H       1.00   -0.853730553    1.569147579   -0.591473234
   5  H       1.00   -0.787351242   -1.471656682    3.163162886

 Bond lengths in Bohr (Angstrom)

 1-2  2.692086495  1-3  1.914288504  1-4  1.910961782  2-5  1.809721736
     ( 1.424590823)     ( 1.012997851)     ( 1.011237426)     ( 0.957663501)

 Bond angles

  1-2-5  102.82195619   2-1-3  104.67422078   2-1-4  104.30251315   3-1-4  106.27369107

 NUCLEAR CHARGE:                   18
 NUMBER OF PRIMITIVE AOS:         145
 NUMBER OF SYMMETRY AOS:          132
 NUMBER OF CONTRACTIONS:          102   (  102A   )
 NUMBER OF INNER CORE ORBITALS:     0   (    0A   )
 NUMBER OF OUTER CORE ORBITALS:     2   (    2A   )
 NUMBER OF VALENCE ORBITALS:       11   (   11A   )


 NUCLEAR REPULSION ENERGY   39.60914823

 Eigenvalues of metric

         1 0.150E-02 0.275E-02 0.351E-02 0.373E-02 0.567E-02 0.847E-02 0.861E-02 0.107E-01


 Contracted 2-electron integrals neglected if value below      1.0D-11
 AO integral compression algorithm  1   Integral accuracy      1.0D-11

     68.944 MB (compressed) written to integral file ( 52.7%)


 NUMBER OF SORTED TWO-ELECTRON INTEGRALS:   13799631.     BUFFER LENGTH:  32768
 NUMBER OF SEGMENTS:   1  SEGMENT LENGTH:   13799631      RECORD LENGTH: 524288

 Memory used in sort:      14.36 MW

 SORT1 READ    16309490. AND WROTE    13587141. INTEGRALS IN     39 RECORDS. CPU TIME:     0.15 SEC, REAL TIME:     0.51 SEC
 SORT2 READ    13587141. AND WROTE    13799631. INTEGRALS IN    263 RECORDS. CPU TIME:     0.31 SEC, REAL TIME:     0.39 SEC

 FILE SIZES:   FILE 1:    99.4 MBYTE,  FILE 4:   163.6 MBYTE,   TOTAL:    263.0 MBYTE

 OPERATOR DM      FOR CENTER  0  COORDINATES:    0.000000    0.000000    0.000000


 **********************************************************************************************************************************
 DATASETS  * FILE   NREC   LENGTH (MB)   RECORD NAMES
              1      19       85.64       500      610      700      900      950      970     1000      129      960     1100   
                                          VAR    BASINP    GEOM    SYMINP    ZMAT    AOBASIS   BASIS     P2S    ABASIS      S 
                                         1400     1410     1200     1210     1080     1600     1650     1300     1700   
                                           T        V       H0       H01     AOSYM     SMH    MOLCAS    ERIS     OPER   

 PROGRAMS   *        TOTAL       INT
 CPU TIMES  *         1.88      1.75
 REAL TIME  *         4.20 SEC
 DISK USED  *       251.25 MB
 **********************************************************************************************************************************


 Program * Restricted Hartree-Fock

 Orbital guess generated from atomic densities. Full valence occupancy:   13

 Initial occupancy:   9

 NELEC=   18   SYM=1   MS2= 0   THRE=1.0D-08   THRD=3.2D-06   THRG=3.2D-06  HFMA2=F  DIIS_START=2   DIIS_MAX=10   DIIS_INCORE=F

 Level shifts:    0.00 (CLOSED)    0.00 (OPEN)    0.30 (GAP_MIN)

 ITER           ETOT              DE          GRAD        DDIFF     DIIS  NEXP   TIME(IT)  TIME(TOT)  DIAG
   1     -131.01251027    -131.01251027     0.00D+00     0.79D-01     0     0       0.14      0.27    start
   2     -131.03820287      -0.02569261     0.64D-02     0.85D-02     1     0       0.13      0.40    diag
   3     -131.04182242      -0.00361955     0.27D-02     0.25D-02     2     0       0.14      0.54    diag
   4     -131.04232259      -0.00050017     0.86D-03     0.78D-03     3     0       0.13      0.67    diag
   5     -131.04235864      -0.00003605     0.16D-03     0.21D-03     4     0       0.15      0.82    diag
   6     -131.04236117      -0.00000253     0.37D-04     0.55D-04     5     0       0.14      0.96    diag
   7     -131.04236157      -0.00000040     0.15D-04     0.22D-04     6     0       0.13      1.09    diag
   8     -131.04236162      -0.00000005     0.44D-05     0.89D-05     7     0       0.14      1.23    fixocc
   9     -131.04236162      -0.00000000     0.12D-05     0.28D-05     8     0       0.13      1.36    diag
  10     -131.04236162      -0.00000000     0.35D-06     0.51D-06     0     0       0.13      1.49    diag/orth

 Final occupancy:   9

 !RHF STATE 1.1 Energy               -131.042361620946
  RHF One-electron energy            -258.227657770691
  RHF Two-electron energy              87.576147924525
  RHF Kinetic energy                  130.896405502501
  RHF Nuclear energy                   39.609148225220
  RHF Virial quotient                  -1.001115050623

 !RHF STATE 1.1 Dipole moment           0.05140870    -0.01473163    -0.26884889
 Dipole moment /Debye                   0.13066788    -0.03744406    -0.68334571

 Orbital energies:

           1.1          2.1          3.1          4.1          5.1          6.1          7.1          8.1          9.1         10.1
    -20.579420   -15.599280    -1.396600    -1.077609    -0.690288    -0.673556    -0.617817    -0.479520    -0.423592     0.147131

          11.1
      0.170566


 HOMO      9.1    -0.423592 =     -11.5265eV
 LUMO     10.1     0.147131 =       4.0036eV
 LUMO-HOMO         0.570723 =      15.5302eV

 Orbitals saved in record  2100.2


 **********************************************************************************************************************************
 DATASETS  * FILE   NREC   LENGTH (MB)   RECORD NAMES
              1      19       85.64       500      610      700      900      950      970     1000      129      960     1100   
                                          VAR    BASINP    GEOM    SYMINP    ZMAT    AOBASIS   BASIS     P2S    ABASIS      S 
                                         1400     1410     1200     1210     1080     1600     1650     1300     1700   
                                           T        V       H0       H01     AOSYM     SMH    MOLCAS    ERIS     OPER   

              2       4        0.62       700     1000      520     2100   
                                         GEOM     BASIS   MCVARS     RHF  

 PROGRAMS   *        TOTAL    HF-SCF       INT
 CPU TIMES  *         3.38      1.50      1.75
 REAL TIME  *         6.30 SEC
 DISK USED  *       251.25 MB
 **********************************************************************************************************************************


 PROGRAM * MP4 (Closed-shell)     Authors: C. Hampel, H.-J. Werner, 1991, M. Deegan, P.J. Knowles, 1992


 Convergence thresholds:  THRVAR = 1.00D-08  THRDEN = 1.00D-06

 MP4(T)     terms to be evaluated (factor= 0.000)


 Number of core orbitals:           2 (   2 )
 Number of closed-shell orbitals:   7 (   7 )
 Number of external orbitals:      93 (  93 )

 Molecular orbitals read from record     2100.2  Type=RHF/CANONICAL  

 Number of N-1 electron functions:               7
 Number of N-2 electron functions:              28
 Number of singly external CSFs:               651
 Number of doubly external CSFs:            212226
 Total number of CSFs:                      212878

 Length of J-op  integral file:               0.00 MB
 Length of K-op  integral file:               0.78 MB

 Memory could be reduced to 8.34 Mwords without degradation in triples

 Integral transformation finished. Total CPU:   0.53 sec, npass=  1  Memory used:   5.00 MW

 Reference energy:                   -131.04236162

                        CORR.ENERGY   TOTAL ENERGY   ENERGY CHANGE
 MP2:                   -0.46555960  -131.50792122    -0.46555960

 SCS-MP2 correlation energy:           -0.46124575   (PS=  1.200000  PT=  0.333333)
 SCS-MP2 total energy:               -131.50360737

 MP3(D):                -0.47551888  -131.51788050    -0.00995928
 MP4(DQ):               -0.47579170  -131.51815332    -0.00027282
 MP4(SDQ):              -0.47924531  -131.52160693    -0.00345361

 Norm of t1 vector:      0.03799060      S-energy:    -0.00345361      T1 diagnostic:  0.00717955


 Total CPU time for triples:      5.37 sec


 RESULTS
 =======

  Reference energy                   -131.042361620946
  MP4(SDQ) singlet pair energy         -0.319995582339
  MP4(SDQ) triplet pair energy         -0.155796114926
  MP4(SDQ) correlation energy          -0.479245307352

  Triples contribution                 -0.017788032902
  Total correlation energy             -0.497033340254

  MP4(SDQ) total energy              -131.521606928298
 !MP4(SDTQ) total energy             -131.539394961200

 Timing summary (sec):

 STEP                 CPU(USER)    SYS     CPU(TOT)    WALL
 Transformation          0.54      0.07      0.61      1.41
 CCSD iterations         4.42      0.04      4.46      0.99
 Triples                 5.37      0.17      5.54      5.78

 Program statistics:

 Available memory in ccsd:               805306163
 Min. memory needed in ccsd:                697237
 Max. memory used in ccsd:                  867232
 Max. memory used in cckext:                672707 ( 1 integral passes)



 **********************************************************************************************************************************
 DATASETS  * FILE   NREC   LENGTH (MB)   RECORD NAMES
              1      20      110.86       500      610      700      900      950      970     1000      129      960     1100   
                                          VAR    BASINP    GEOM    SYMINP    ZMAT    AOBASIS   BASIS     P2S    ABASIS      S 
                                         1400     1410     1200     1210     1080     1600     1650     1300     1700     1380   
                                           T        V       H0       H01     AOSYM     SMH    MOLCAS    ERIS     OPER     JKOP   

              2       4        0.62       700     1000      520     2100   
                                         GEOM     BASIS   MCVARS     RHF  

 PROGRAMS   *        TOTAL       MP4    HF-SCF       INT
 CPU TIMES  *        10.05      6.66      1.50      1.75
 REAL TIME  *        16.13 SEC
 DISK USED  *       251.25 MB
 **********************************************************************************************************************************

 Dump information in style XML to xml output                                                                      

 Orbitals will not be exported.

 **********************************************************************************************************************************

 MP4/cc-pVTZ energy=   -131.539394961200

             MP4          HF-SCF
   -131.53939496   -131.04236162
 **********************************************************************************************************************************
 Molpro calculation terminated
