
 Working directory              : /home/jovyan/scratch/molpro.qqyFuRlU57/
 Global scratch directory       : /home/jovyan/scratch/molpro.qqyFuRlU57/
 Wavefunction directory         : /home/jovyan/wfu/
 Main file repository           : /home/jovyan/scratch/molpro.qqyFuRlU57/

 id        : cardiff

 Nodes                nprocs
 jupyter-c-2efrancisan    1
 GA implementation: MPI file
 GA implementation (serial work in mppx): MPI file

 Using customized tuning parameters: mindgm=1; mindgv=20; mindgc=4; mindgr=1; noblas=0; minvec=7
 default implementation of scratch files=df  


 Variables initialized (1031), CPU time= 0.01 sec
 
 
 
 geometry={
            1
     F          0.00000000      0.00000000      0.00000000
 }
 basis=cc-pVTZ
 angstrom
 charge=-1
 
 hf; mp2
 
 
 
 {put,xml;noorbitals,nobasis}
 Commands initialized (841), CPU time= 0.01 sec, 704 directives.
 Default parameters read. Elapsed time= 0.08 sec

 Checking input...
 Passed
1


                                         ***  PROGRAM SYSTEM MOLPRO  ***
                                       Copyright, TTI GmbH Stuttgart, 2015
                                    Version 2023.1 linked Mon Jun  5 13:27:10 2023


 **********************************************************************************************************************************
 LABEL *                                                                                                                                                                 
  (16 PROC) 64 bit serial version                                                        DATE: 02-Aug-23          TIME: 15:35:51  
 **********************************************************************************************************************************

 SHA1:             9738a14712571edd23541b6d7c4f3a3d766f8287
 **********************************************************************************************************************************

 Memory per process:       805 MW
 Total memory per node:   1074 MW
 Total GA space:           268 MW

 GA preallocation disabled
 GA check enabled

 Geometry recognized as XYZ


 Variable memory set to 805.3 MW

 SETTING BASIS          =    CC-PVTZ
 SETTING CHARGE         =        -1.00000000                                  


 Recomputing integrals since basis changed


 Using spherical harmonics

 Library entry F      S cc-pVTZ              selected for orbital group  1
 Library entry F      P cc-pVTZ              selected for orbital group  1
 Library entry F      D cc-pVTZ              selected for orbital group  1
 Library entry F      F cc-pVTZ              selected for orbital group  1


 PROGRAM * SEWARD (Integral evaluation for generally contracted gaussian basis sets)     Author: Roland Lindh, 1990

 Geometry written to block  1 of record 700

 Orientation using atomic masses  
 Molecule type: Atom
 Symmetry elements: X,Y,Z
 Rotational constants:       0.0000000      0.0000000      0.0000000 GHz  (calculated with average atomic masses)

 Point group  D2h 



 ATOMIC COORDINATES

 NR  ATOM    CHARGE       X              Y              Z

   1  F       9.00    0.000000000    0.000000000    0.000000000

 NUCLEAR CHARGE:                    9
 NUMBER OF PRIMITIVE AOS:          47
 NUMBER OF SYMMETRY AOS:           42
 NUMBER OF CONTRACTIONS:           30   (    8Ag  +    5B3u +    5B2u +    2B1g +    5B1u +    2B2g +    2B3g +    1Au  )
 NUMBER OF INNER CORE ORBITALS:     0   (    0Ag  +    0B3u +    0B2u +    0B1g +    0B1u +    0B2g +    0B3g +    0Au  )
 NUMBER OF OUTER CORE ORBITALS:     1   (    1Ag  +    0B3u +    0B2u +    0B1g +    0B1u +    0B2g +    0B3g +    0Au  )
 NUMBER OF VALENCE ORBITALS:        4   (    1Ag  +    1B3u +    1B2u +    0B1g +    1B1u +    0B2g +    0B3g +    0Au  )


 NUCLEAR REPULSION ENERGY    0.00000000

 EXTRA SYMMETRY OF AOS IN SYMMETRY 1:   1 1 1 1 2 3 2 3
 EXTRA SYMMETRY OF AOS IN SYMMETRY 2:   1 1 1 2 3
 EXTRA SYMMETRY OF AOS IN SYMMETRY 3:   1 1 1 2 3
 EXTRA SYMMETRY OF AOS IN SYMMETRY 5:   1 1 1 2 3

 Eigenvalues of metric

         1 0.165E-01 0.328E+00 0.495E+00 0.495E+00 0.115E+01 0.151E+01 0.151E+01 0.250E+01
         2 0.535E-01 0.403E+00 0.100E+01 0.100E+01 0.254E+01
         3 0.535E-01 0.403E+00 0.100E+01 0.100E+01 0.254E+01
         4 0.495E+00 0.151E+01
         5 0.535E-01 0.403E+00 0.100E+01 0.100E+01 0.254E+01
         6 0.495E+00 0.151E+01
         7 0.495E+00 0.151E+01
         8 0.100E+01


 Contracted 2-electron integrals neglected if value below      1.0D-11
 AO integral compression algorithm  1   Integral accuracy      1.0D-11

     0.262 MB (compressed) written to integral file (100.0%)


 NUMBER OF SORTED TWO-ELECTRON INTEGRALS:      16435.     BUFFER LENGTH:  32768
 NUMBER OF SEGMENTS:   1  SEGMENT LENGTH:      16435      RECORD LENGTH: 524288

 Memory used in sort:       0.57 MW

 SORT1 READ       29024. AND WROTE       13276. INTEGRALS IN      1 RECORDS. CPU TIME:     0.01 SEC, REAL TIME:     0.01 SEC
 SORT2 READ       13276. AND WROTE       16435. INTEGRALS IN      1 RECORDS. CPU TIME:     0.00 SEC, REAL TIME:     0.01 SEC

 FILE SIZES:   FILE 1:    30.3 MBYTE,  FILE 4:     4.3 MBYTE,   TOTAL:     34.5 MBYTE

 OPERATOR DM      FOR CENTER  0  COORDINATES:    0.000000    0.000000    0.000000


 **********************************************************************************************************************************
 DATASETS  * FILE   NREC   LENGTH (MB)   RECORD NAMES
              1      19       28.70       500      610      700      900      950      970     1000      129      960     1100   
                                          VAR    BASINP    GEOM    SYMINP    ZMAT    AOBASIS   BASIS     P2S    ABASIS      S 
                                         1400     1410     1200     1210     1080     1600     1650     1300     1700   
                                           T        V       H0       H01     AOSYM     SMH    MOLCAS    ERIS     OPER   

 PROGRAMS   *        TOTAL       INT
 CPU TIMES  *         0.53      0.40
 REAL TIME  *         1.80 SEC
 DISK USED  *        33.24 MB
 **********************************************************************************************************************************


 Program * Restricted Hartree-Fock

 Orbital guess generated from atomic densities. Full valence occupancy:    2   1   1   0   1   0   0   0


 Initial occupancy:   2   1   1   0   1   0   0   0

 NELEC=   10   SYM=1   MS2= 0   THRE=1.0D-08   THRD=3.2D-06   THRG=3.2D-06  HFMA2=F  DIIS_START=2   DIIS_MAX=10   DIIS_INCORE=F

 Level shifts:    0.00 (CLOSED)    0.00 (OPEN)    0.30 (GAP_MIN)

 ITER           ETOT              DE          GRAD        DDIFF     DIIS  NEXP   TIME(IT)  TIME(TOT)  DIAG
   1      -99.34410114     -99.34410114     0.00D+00     0.46D+00     0     0       0.00      0.00    start
   2      -99.39328855      -0.04918741     0.70D-01     0.10D+00     1     0       0.00      0.00    diag
   3      -99.42424142      -0.03095287     0.52D-01     0.39D-01     2     0       0.00      0.00    diag
   4      -99.42429870      -0.00005728     0.26D-02     0.21D-02     3     0       0.00      0.00    diag
   5      -99.42429874      -0.00000004     0.62D-04     0.60D-04     4     0       0.00      0.00    diag
   6      -99.42429874      -0.00000000     0.50D-05     0.57D-05     5     0       0.00      0.00    diag
   7      -99.42429874      -0.00000000     0.50D-06     0.98D-06     6     0       0.00      0.00    diag
   8      -99.42429874      -0.00000000     0.55D-08     0.11D-07     0     0       0.00      0.00    fixocc

 Final occupancy:   2   1   1   0   1   0   0   0

 !RHF STATE 1.1 Energy                -99.424298737143
  RHF One-electron energy            -144.534040682591
  RHF Two-electron energy              45.109741945448
  RHF Kinetic energy                   99.656896032449
  RHF Nuclear energy                    0.000000000000
  RHF Virial quotient                  -0.997666019066

 !RHF STATE 1.1 Dipole moment           0.00000000     0.00000000     0.00000000
 Dipole moment /Debye                   0.00000000     0.00000000     0.00000000

 Orbital energies:

           1.1          2.1          3.1          4.1
    -25.749489    -1.018973     1.633180     2.739997

           1.2          2.2          3.2
     -0.129605     1.363944     5.583295

           1.3          2.3          3.3
     -0.129605     1.363944     5.583295

           1.4          2.4
      2.739997     9.379679

           1.5          2.5          3.5
     -0.129605     1.363944     5.583295

           1.6          2.6
      2.739997     9.379679

           1.7          2.7
      2.739997     9.379679

           1.8
      7.907397


 HOMO      1.5    -0.129605 =      -3.5267eV
 LUMO      2.2     1.363944 =      37.1148eV
 LUMO-HOMO         1.493550 =      40.6416eV

 Orbitals saved in record  2100.2


 **********************************************************************************************************************************
 DATASETS  * FILE   NREC   LENGTH (MB)   RECORD NAMES
              1      19       28.70       500      610      700      900      950      970     1000      129      960     1100   
                                          VAR    BASINP    GEOM    SYMINP    ZMAT    AOBASIS   BASIS     P2S    ABASIS      S 
                                         1400     1410     1200     1210     1080     1600     1650     1300     1700   
                                           T        V       H0       H01     AOSYM     SMH    MOLCAS    ERIS     OPER   

              2       4        0.38       700     1000      520     2100   
                                         GEOM     BASIS   MCVARS     RHF  

 PROGRAMS   *        TOTAL    HF-SCF       INT
 CPU TIMES  *         0.54      0.01      0.40
 REAL TIME  *         1.83 SEC
 DISK USED  *        33.24 MB
 **********************************************************************************************************************************


 PROGRAM * MP2 (Closed-shell)     Authors: C. Hampel, H.-J. Werner, 1991, M. Deegan, P.J. Knowles, 1992


 Convergence thresholds:  THRVAR = 1.00D-08  THRDEN = 1.00D-06

 Number of core orbitals:           1 (   1   0   0   0   0   0   0   0 )
 Number of closed-shell orbitals:   4 (   1   1   1   0   1   0   0   0 )
 Number of external orbitals:      25 (   6   4   4   2   4   2   2   1 )

 Molecular orbitals read from record     2100.2  Type=RHF/CANONICAL  

 Number of N-1 electron functions:               4
 Number of N-2 electron functions:              10
 Number of singly external CSFs:                18
 Number of doubly external CSFs:               712
 Total number of CSFs:                         731

 Length of J-op  integral file:               0.00 MB
 Length of K-op  integral file:               0.07 MB

 Integral transformation finished. Total CPU:   0.00 sec, npass=  1  Memory used:   0.07 MW

 Memory needed for MP2:                      0.00 MW

 SCS-MP2 correlation energy:           -0.261633477180   (PS=  1.200000  PT=  0.333333)
 SCS-MP2 total energy:                -99.685932214323


  Reference energy                    -99.424298737143
  MP2 singlet pair energy              -0.163038853610
  MP2 triplet pair energy              -0.106050299219
  MP2 correlation energy               -0.269089152830

 !MP2 total energy                    -99.693387889973


 **********************************************************************************************************************************
 DATASETS  * FILE   NREC   LENGTH (MB)   RECORD NAMES
              1      20       28.72       500      610      700      900      950      970     1000      129      960     1100   
                                          VAR    BASINP    GEOM    SYMINP    ZMAT    AOBASIS   BASIS     P2S    ABASIS      S 
                                         1400     1410     1200     1210     1080     1600     1650     1300     1700     1380   
                                           T        V       H0       H01     AOSYM     SMH    MOLCAS    ERIS     OPER     JKOP   

              2       4        0.38       700     1000      520     2100   
                                         GEOM     BASIS   MCVARS     RHF  

 PROGRAMS   *        TOTAL       MP2    HF-SCF       INT
 CPU TIMES  *         0.58      0.04      0.01      0.40
 REAL TIME  *         2.11 SEC
 DISK USED  *        33.24 MB
 **********************************************************************************************************************************

 Dump information in style XML to xml output                                                                      

 Orbitals will not be exported.

 **********************************************************************************************************************************

 MP2/cc-pVTZ energy=    -99.693387889973

             MP2          HF-SCF
    -99.69338789    -99.42429874
 **********************************************************************************************************************************
 Molpro calculation terminated
