
 Working directory              : /home/jovyan/scratch/molpro.pEza0ZEebr/
 Global scratch directory       : /home/jovyan/scratch/molpro.pEza0ZEebr/
 Wavefunction directory         : /home/jovyan/wfu/
 Main file repository           : /home/jovyan/scratch/molpro.pEza0ZEebr/

 id        : cardiff

 Nodes                nprocs
 jupyter-c-2efrancisan    1
 GA implementation: MPI file
 GA implementation (serial work in mppx): MPI file

 Using customized tuning parameters: mindgm=1; mindgv=20; mindgc=4; mindgr=1; noblas=0; minvec=7
 default implementation of scratch files=df  


 Variables initialized (1031), CPU time= 0.01 sec
 
 
 
 geometry={
 10
  B     0.0000000    0.0000000   -2.3759884
  H     0.5905364    1.0228391   -2.5936411
  H     0.5905364   -1.0228391   -2.5936411
  H    -1.1810728    0.0000000   -2.5936411
  P    -0.0000000    0.0000000    1.7684168
  H     0.6165007    1.0678105    2.4225352
  H     0.6165007   -1.0678105    2.4225352
  H    -1.2330014    0.0000000    2.4225352
  H     0.0000000    0.0000000   -1.0070281
  H    -0.0000000    0.0000000   -0.1475438
 }
 basis=cc-pVTZ
 angstrom
 
 
 hf; papt;mp2
 
 
 
 {put,xml;noorbitals,nobasis}
 Commands initialized (841), CPU time= 0.01 sec, 704 directives.
 Default parameters read. Elapsed time= 0.08 sec

 Checking input...
 Passed
1


                                         ***  PROGRAM SYSTEM MOLPRO  ***
                                       Copyright, TTI GmbH Stuttgart, 2015
                                    Version 2023.1 linked Mon Jun  5 13:27:10 2023


 **********************************************************************************************************************************
 LABEL *                                                                                                                                                                 
  (16 PROC) 64 bit serial version                                                        DATE: 02-Aug-23          TIME: 15:39:39  
 **********************************************************************************************************************************

 SHA1:             9738a14712571edd23541b6d7c4f3a3d766f8287
 **********************************************************************************************************************************

 Memory per process:       805 MW
 Total memory per node:   1074 MW
 Total GA space:           268 MW

 GA preallocation disabled
 GA check enabled

 Geometry recognized as XYZ


 Variable memory set to 805.3 MW

 SETTING BASIS          =    CC-PVTZ


 Recomputing integrals since basis changed


 Using spherical harmonics

 Library entry B      S cc-pVTZ              selected for orbital group  1
 Library entry B      P cc-pVTZ              selected for orbital group  1
 Library entry B      D cc-pVTZ              selected for orbital group  1
 Library entry B      F cc-pVTZ              selected for orbital group  1
 Library entry H      S cc-pVTZ              selected for orbital group  2
 Library entry H      P cc-pVTZ              selected for orbital group  2
 Library entry H      D cc-pVTZ              selected for orbital group  2
 Library entry P      S cc-pVTZ              selected for orbital group  3
 Library entry P      P cc-pVTZ              selected for orbital group  3
 Library entry P      D cc-pVTZ              selected for orbital group  3
 Library entry P      F cc-pVTZ              selected for orbital group  3


 PROGRAM * SEWARD (Integral evaluation for generally contracted gaussian basis sets)     Author: Roland Lindh, 1990

 Geometry written to block  1 of record 700


 Point group  Cs  



 ATOMIC COORDINATES

 NR  ATOM    CHARGE       X              Y              Z

   1  B       5.00    0.000000000    0.000000000   -4.489967351
   2  H       1.00    1.115952063    1.932885769   -4.901271345
   3  H       1.00    1.115952063   -1.932885769   -4.901271345
   4  H       1.00   -2.231904125    0.000000000   -4.901271345
   5  P      15.00   -0.000000000    0.000000000    3.341823426
   6  H       1.00    1.165017479    2.017869398    4.577928055
   7  H       1.00    1.165017479   -2.017869398    4.577928055
   8  H       1.00   -2.330034957    0.000000000    4.577928055
   9  H       1.00    0.000000000    0.000000000   -1.903007309
  10  H       1.00   -0.000000000    0.000000000   -0.278817373

 Bond lengths in Bohr (Angstrom)

 1-2  2.269486148  1-3  2.269486148  1-4  2.269486065  1-9  2.586960042  5-6  2.637615834
     ( 1.200960350)     ( 1.200960350)     ( 1.200960306)     ( 1.368960300)     ( 1.395766190)

  5- 7  2.637615834   5- 8  2.637615885   5-10  3.620640800   9-10  1.624189935
       ( 1.395766190)       ( 1.395766217)       ( 1.915960600)       ( 0.859484300)

 Bond angles

  1- 9-10  179.99999829   2- 1- 3  116.79068143   2- 1- 4  116.79067780   2- 1- 9  100.44154086

  3- 1- 4  116.79067780   3- 1- 9  100.44154086   4- 1- 9  100.44154124   5-10- 9  180.00000000

  6- 5- 7   99.82027708   6- 5- 8   99.82027914   6- 5-10  117.94635571   7- 5- 8   99.82027914

  7- 5-10  117.94635571   8- 5-10  117.94635512

 NUCLEAR CHARGE:                   28
 NUMBER OF PRIMITIVE AOS:         247
 NUMBER OF SYMMETRY AOS:          229
 NUMBER OF CONTRACTIONS:          176   (  111A'  +   65A"  )
 NUMBER OF INNER CORE ORBITALS:     1   (    1A'  +    0A"  )
 NUMBER OF OUTER CORE ORBITALS:     5   (    4A'  +    1A"  )
 NUMBER OF VALENCE ORBITALS:       16   (   12A'  +    4A"  )


 NUCLEAR REPULSION ENERGY   55.65651278


 Eigenvalues of metric

         1 0.337E-03 0.721E-03 0.122E-02 0.144E-02 0.163E-02 0.217E-02 0.300E-02 0.340E-02
         2 0.163E-02 0.217E-02 0.139E-01 0.152E-01 0.180E-01 0.283E-01 0.295E-01 0.472E-01


 Contracted 2-electron integrals neglected if value below      1.0D-11
 AO integral compression algorithm  1   Integral accuracy      1.0D-11

     166.986 MB (compressed) written to integral file ( 32.9%)


 NUMBER OF SORTED TWO-ELECTRON INTEGRALS:   61623981.     BUFFER LENGTH:  32768
 NUMBER OF SEGMENTS:   4  SEGMENT LENGTH:   15999984      RECORD LENGTH: 524288

 Memory used in sort:      16.56 MW

 SORT1 READ    63444340. AND WROTE    40618278. INTEGRALS IN    118 RECORDS. CPU TIME:     0.97 SEC, REAL TIME:     1.69 SEC
 SORT2 READ    40618278. AND WROTE    61623981. INTEGRALS IN    637 RECORDS. CPU TIME:     1.41 SEC, REAL TIME:     1.80 SEC

 FILE SIZES:   FILE 1:   198.0 MBYTE,  FILE 4:   495.0 MBYTE,   TOTAL:    693.0 MBYTE

 OPERATOR DM      FOR CENTER  0  COORDINATES:    0.000000    0.000000    0.000000


 **********************************************************************************************************************************
 DATASETS  * FILE   NREC   LENGTH (MB)   RECORD NAMES
              1      19      179.77       500      610      700      900      950      970     1000      129      960     1100   
                                          VAR    BASINP    GEOM    SYMINP    ZMAT    AOBASIS   BASIS     P2S    ABASIS      S 
                                         1400     1410     1200     1210     1080     1600     1650     1300     1700   
                                           T        V       H0       H01     AOSYM     SMH    MOLCAS    ERIS     OPER   

 PROGRAMS   *        TOTAL       INT
 CPU TIMES  *         8.87      8.73
 REAL TIME  *        11.73 SEC
 DISK USED  *       661.38 MB
 **********************************************************************************************************************************


 Program * Restricted Hartree-Fock

 Orbital guess generated from atomic densities. Full valence occupancy:   17   5

 Initial occupancy:  11   3

 NELEC=   28   SYM=1   MS2= 0   THRE=1.0D-08   THRD=3.2D-06   THRG=3.2D-06  HFMA2=F  DIIS_START=2   DIIS_MAX=10   DIIS_INCORE=F

 Level shifts:    0.00 (CLOSED)    0.00 (OPEN)    0.30 (GAP_MIN)

 ITER           ETOT              DE          GRAD        DDIFF     DIIS  NEXP   TIME(IT)  TIME(TOT)  DIAG
   1     -369.89861095    -369.89861095     0.00D+00     0.78D-01     0     0       0.53      1.03    start
   2     -369.96038673      -0.06177578     0.46D-02     0.85D-02     1     0       0.53      1.56    diag
   3     -369.96773438      -0.00734765     0.18D-02     0.30D-02     2     0       0.53      2.09    diag
   4     -369.96908301      -0.00134863     0.55D-03     0.12D-02     3     0       0.53      2.62    diag
   5     -369.96915841      -0.00007540     0.13D-03     0.38D-03     4     0       0.52      3.14    diag
   6     -369.96916271      -0.00000429     0.29D-04     0.96D-04     5     0       0.53      3.67    diag
   7     -369.96916302      -0.00000031     0.79D-05     0.25D-04     6     0       0.52      4.19    diag
   8     -369.96916303      -0.00000001     0.16D-05     0.73D-05     7     0       0.53      4.72    fixocc
   9     -369.96916304      -0.00000000     0.40D-06     0.25D-05     8     0       0.53      5.25    diag
  10     -369.96916304      -0.00000000     0.70D-07     0.21D-06     0     0       0.52      5.77    diag/orth

 Final occupancy:  11   3

 !RHF STATE 1.1 Energy               -369.969163035173
  RHF One-electron energy            -619.256461790457
  RHF Two-electron energy             193.630785971015
  RHF Kinetic energy                  370.041416758371
  RHF Nuclear energy                   55.656512784269
  RHF Virial quotient                  -0.999804741524

 !RHF STATE 1.1 Dipole moment          -0.00000002     0.00000000     2.37732265
 Dipole moment /Debye                  -0.00000005     0.00000000     6.04255147

 Orbital energies:

           1.1          2.1          3.1          4.1          5.1          6.1          7.1          8.1          9.1         10.1
    -79.988478    -7.546822    -7.534291    -5.428137    -5.427385    -0.910323    -0.727228    -0.581593    -0.578060    -0.437937

          11.1         12.1         13.1
     -0.389528     0.105825     0.117788

           1.2          2.2          3.2          4.2          5.2
     -5.428137    -0.581593    -0.437937     0.117788     0.224749


 HOMO     11.1    -0.389528 =     -10.5996eV
 LUMO     12.1     0.105825 =       2.8796eV
 LUMO-HOMO         0.495353 =      13.4792eV

 Orbitals saved in record  2100.2


 **********************************************************************************************************************************
 DATASETS  * FILE   NREC   LENGTH (MB)   RECORD NAMES
              1      19      179.77       500      610      700      900      950      970     1000      129      960     1100   
                                          VAR    BASINP    GEOM    SYMINP    ZMAT    AOBASIS   BASIS     P2S    ABASIS      S 
                                         1400     1410     1200     1210     1080     1600     1650     1300     1700   
                                           T        V       H0       H01     AOSYM     SMH    MOLCAS    ERIS     OPER   

              2       4        0.81       700     1000      520     2100   
                                         GEOM     BASIS   MCVARS     RHF  

 PROGRAMS   *        TOTAL    HF-SCF       INT
 CPU TIMES  *        14.65      5.78      8.73
 REAL TIME  *        20.21 SEC
 DISK USED  *       661.38 MB
 **********************************************************************************************************************************


 PROGRAM * PAPT (Closed-shell)     Authors: C. Hampel, H.-J. Werner, 1991, P.J. Knowles, 2021


 Convergence thresholds:  THRVAR = 1.00D-08  THRDEN = 1.00D-06

 Number of core orbitals:           6 (   5   1 )
 Number of closed-shell orbitals:   8 (   6   2 )
 Number of external orbitals:     162 ( 100  62 )

 Molecular orbitals read from record     2100.2  Type=RHF/CANONICAL  

 Number of N-1 electron functions:               8
 Number of N-2 electron functions:              36
 Number of singly external CSFs:               724
 Number of doubly external CSFs:            426328
 Total number of CSFs:                      427053

 Length of J-op  integral file:               0.00 MB
 Length of K-op  integral file:               1.20 MB

 Integral transformation finished. Total CPU:   0.91 sec, npass=  1  Memory used:   0.78 MW

 Reference energy:                   -369.96916304

                        CORR.ENERGY   TOTAL ENERGY   ENERGY CHANGE
 MP2:                   -0.34060817  -370.30977121    -0.34060817

 SCS-MP2 correlation energy:           -0.36424010   (PS=  1.200000  PT=  0.333333)
 SCS-MP2 total energy:               -370.33340314
 Iteration:   1     0.2215D+00
 Iteration:   2     0.2677D+00
 Iteration:   3     0.8419D-01
 Iteration:   4     0.5635D-01
 Iteration:   5     0.9906D+00
 Iteration:   6     0.6043D-01
 Iteration:   7     0.4526D-01
 Iteration:   8     0.8306D-01
 Iteration:   9     0.1131D-01
 Iteration:  10     0.3536D-01
 Iteration:  11     0.4494D-02
 Iteration:  12     0.6446D-02
 Iteration:  13     0.1215D-02
 Iteration:  14     0.4603D-03
 Iteration:  15     0.1844D-02
 Iteration:  16     0.1085D-03
 Iteration:  17     0.3795D-04
 PAPT operator written to  7000.1
 PAPT orbitals and eigenvalues written to  7000.2

 MP3(D):                -0.38789012  -370.35705315    -0.04728194



 RESULTS
 =======

  Reference energy                   -369.969163035173
  MP3 singlet pair energy              -0.305570722151
  MP3 triplet pair energy              -0.082319393136
  MP3 correlation energy               -0.387890115287

 !MP3 total energy                   -370.357053150459

 Timing summary (sec):

 STEP                 CPU(USER)    SYS     CPU(TOT)    WALL
 Transformation          0.94      0.06      1.00      1.78
 CCSD iterations        17.91      0.12     18.03     10.77

 Program statistics:

 Available memory in ccsd:               805306101
 Min. memory needed in ccsd:               1305035
 Max. memory used in ccsd:                 1658679
 Max. memory used in cckext:               2086652 ( 1 integral passes)



 **********************************************************************************************************************************
 DATASETS  * FILE   NREC   LENGTH (MB)   RECORD NAMES
              1      21      186.64       500      610      700      900      950      970     1000      129      960     1100   
                                          VAR    BASINP    GEOM    SYMINP    ZMAT    AOBASIS   BASIS     P2S    ABASIS      S 
                                         1400     1410     1200     1210     1080     1600     1650     1300     1700     1380   
                                           T        V       H0       H01     AOSYM     SMH    MOLCAS    ERIS     OPER     JKOP   
                                         7000   
                                        PAPT AO    

              2       5        1.28       700     1000      520     2100     7000   
                                         GEOM     BASIS   MCVARS     RHF     PAPT   

 PROGRAMS   *        TOTAL      PAPT    HF-SCF       INT
 CPU TIMES  *        18.42      3.76      5.78      8.73
 REAL TIME  *        33.05 SEC
 DISK USED  *       661.38 MB
 **********************************************************************************************************************************


 PROGRAM * MP2 (Closed-shell)     Authors: C. Hampel, H.-J. Werner, 1991, M. Deegan, P.J. Knowles, 1992


 Convergence thresholds:  THRVAR = 1.00D-08  THRDEN = 1.00D-06

 Number of core orbitals:           6 (   5   1 )
 Number of closed-shell orbitals:   8 (   6   2 )
 Number of external orbitals:     162 ( 100  62 )

 Molecular orbitals read from record     7000.2  Type=PAPT/CANONICAL (state 1.1)

 Number of N-1 electron functions:               8
 Number of N-2 electron functions:              36
 Number of singly external CSFs:               724
 Number of doubly external CSFs:            426328
 Total number of CSFs:                      427053

 Length of J-op  integral file:               0.00 MB
 Length of K-op  integral file:               1.20 MB

 Integral transformation finished. Total CPU:   0.89 sec, npass=  1  Memory used:   0.78 MW
 Orbital energies read from record       7000.2  Type=PAPT/CANONICAL (state 1.1)

 Memory needed for MP2:                      0.08 MW

 SCS-MP2 correlation energy:           -0.428374902926   (PS=  1.200000  PT=  0.333333)
 SCS-MP2 total energy:               -370.397537938099


  Reference energy                   -369.969163035173
  MP2 singlet pair energy              -0.310611777182
  MP2 triplet pair energy              -0.089422666566
  MP2 correlation energy               -0.400034443748

 !MP2 total energy                   -370.369197478921


 **********************************************************************************************************************************
 DATASETS  * FILE   NREC   LENGTH (MB)   RECORD NAMES
              1      21      186.64       500      610      700      900      950      970     1000      129      960     1100   
                                          VAR    BASINP    GEOM    SYMINP    ZMAT    AOBASIS   BASIS     P2S    ABASIS      S 
                                         1400     1410     1200     1210     1080     1600     1650     1300     1700     1380   
                                           T        V       H0       H01     AOSYM     SMH    MOLCAS    ERIS     OPER     JKOP   
                                         7000   
                                        PAPT AO    

              2       5        1.28       700     1000      520     2100     7000   
                                         GEOM     BASIS   MCVARS     RHF     PAPT   

 PROGRAMS   *        TOTAL       MP2      PAPT    HF-SCF       INT
 CPU TIMES  *        19.93      1.50      3.76      5.78      8.73
 REAL TIME  *        36.06 SEC
 DISK USED  *       661.38 MB
 **********************************************************************************************************************************

 Dump information in style XML to xml output                                                                      

 Orbitals will not be exported.

 **********************************************************************************************************************************

 MP2/cc-pVTZ energy=   -370.369197478921

             MP2            PAPT          HF-SCF
   -370.36919748   -370.35705315   -369.96916304
 **********************************************************************************************************************************
 Molpro calculation terminated
