
 Working directory              : /home/jovyan/scratch/molpro.qXj9vW4Rsy/
 Global scratch directory       : /home/jovyan/scratch/molpro.qXj9vW4Rsy/
 Wavefunction directory         : /home/jovyan/wfu/
 Main file repository           : /home/jovyan/scratch/molpro.qXj9vW4Rsy/

 id        : cardiff

 Nodes                nprocs
 jupyter-c-2efrancisan    1
 GA implementation: MPI file
 GA implementation (serial work in mppx): MPI file

 Using customized tuning parameters: mindgm=1; mindgv=20; mindgc=4; mindgr=1; noblas=0; minvec=7
 default implementation of scratch files=df  


 Variables initialized (1031), CPU time= 0.00 sec
 
 
 
 geometry={
 4
  S     1.0572291    0.0000000   -0.6622784
  S    -1.0572291    0.0000000   -0.6622784
  H     1.2093176    0.0000000    0.6627105
  H    -1.2093176    0.0000000    0.6627105
 }
 basis=cc-pVDZ
 angstrom
 
 
 hf; papt;mp4
 
 
 
 {put,xml;noorbitals,nobasis}
 Commands initialized (841), CPU time= 0.01 sec, 704 directives.
 Default parameters read. Elapsed time= 0.07 sec

 Checking input...
 Passed
1


                                         ***  PROGRAM SYSTEM MOLPRO  ***
                                       Copyright, TTI GmbH Stuttgart, 2015
                                    Version 2023.1 linked Mon Jun  5 13:27:10 2023


 **********************************************************************************************************************************
 LABEL *                                                                                                                                                                 
  (16 PROC) 64 bit serial version                                                        DATE: 03-Aug-23          TIME: 22:37:05  
 **********************************************************************************************************************************

 SHA1:             9738a14712571edd23541b6d7c4f3a3d766f8287
 **********************************************************************************************************************************

 Memory per process:       805 MW
 Total memory per node:   1074 MW
 Total GA space:           268 MW

 GA preallocation disabled
 GA check enabled

 Geometry recognized as XYZ


 Variable memory set to 805.3 MW

 SETTING BASIS          =    CC-PVDZ


 Recomputing integrals since basis changed


 Using spherical harmonics

 Library entry S      S cc-pVDZ              selected for orbital group  1
 Library entry S      P cc-pVDZ              selected for orbital group  1
 Library entry S      D cc-pVDZ              selected for orbital group  1
 Library entry H      S cc-pVDZ              selected for orbital group  2
 Library entry H      P cc-pVDZ              selected for orbital group  2


 PROGRAM * SEWARD (Integral evaluation for generally contracted gaussian basis sets)     Author: Roland Lindh, 1990

 Geometry written to block  1 of record 700


 Point group  C2v 



 ATOMIC COORDINATES

 NR  ATOM    CHARGE       X              Y              Z

   1  S      16.00    1.997873450    0.000000000   -1.251524794
   2  S      16.00   -1.997873450    0.000000000   -1.251524794
   3  H       1.00    2.285279062    0.000000000    1.252341345
   4  H       1.00   -2.285279062    0.000000000    1.252341345

 Bond lengths in Bohr (Angstrom)

 1-2  3.995746900  1-3  2.520307050  2-4  2.520307050
     ( 2.114458200)     ( 1.333689056)     ( 1.333689056)

 Bond angles

  1-2-4   96.54802332   2-1-3   96.54802332

 NUCLEAR CHARGE:                   34
 NUMBER OF PRIMITIVE AOS:          98
 NUMBER OF SYMMETRY AOS:           96
 NUMBER OF CONTRACTIONS:           46   (   17A1  +   17B1  +    6B2  +    6A2  )
 NUMBER OF INNER CORE ORBITALS:     2   (    1A1  +    1B1  +    0B2  +    0A2  )
 NUMBER OF OUTER CORE ORBITALS:     8   (    3A1  +    3B1  +    1B2  +    1A2  )
 NUMBER OF VALENCE ORBITALS:       10   (    4A1  +    4B1  +    1B2  +    1A2  )


 NUCLEAR REPULSION ENERGY   83.43366985

 Eigenvalues of metric

         1 0.217E-01 0.639E-01 0.860E-01 0.996E-01 0.160E+00 0.678E+00 0.961E+00 0.998E+00
         2 0.927E-02 0.425E-01 0.745E-01 0.809E-01 0.120E+00 0.349E+00 0.589E+00 0.867E+00
         3 0.109E+00 0.654E+00 0.100E+01 0.111E+01 0.130E+01 0.248E+01
         4 0.876E-01 0.625E+00 0.807E+00 0.100E+01 0.119E+01 0.163E+01


 Contracted 2-electron integrals neglected if value below      1.0D-11
 AO integral compression algorithm  1   Integral accuracy      1.0D-11

     1.311 MB (compressed) written to integral file ( 46.1%)


 NUMBER OF SORTED TWO-ELECTRON INTEGRALS:     165342.     BUFFER LENGTH:  32768
 NUMBER OF SEGMENTS:   1  SEGMENT LENGTH:     165342      RECORD LENGTH: 524288

 Memory used in sort:       0.72 MW

 SORT1 READ      291376. AND WROTE      135536. INTEGRALS IN      1 RECORDS. CPU TIME:     0.00 SEC, REAL TIME:     0.01 SEC
 SORT2 READ      135536. AND WROTE      165342. INTEGRALS IN      5 RECORDS. CPU TIME:     0.02 SEC, REAL TIME:     0.02 SEC

 FILE SIZES:   FILE 1:    31.4 MBYTE,  FILE 4:     4.3 MBYTE,   TOTAL:     35.7 MBYTE

 OPERATOR DM      FOR CENTER  0  COORDINATES:    0.000000    0.000000    0.000000


 **********************************************************************************************************************************
 DATASETS  * FILE   NREC   LENGTH (MB)   RECORD NAMES
              1      19       29.32       500      610      700      900      950      970     1000      129      960     1100   
                                          VAR    BASINP    GEOM    SYMINP    ZMAT    AOBASIS   BASIS     P2S    ABASIS      S 
                                         1400     1410     1200     1210     1080     1600     1650     1300     1700   
                                           T        V       H0       H01     AOSYM     SMH    MOLCAS    ERIS     OPER   

 PROGRAMS   *        TOTAL       INT
 CPU TIMES  *         0.61      0.47
 REAL TIME  *         1.74 SEC
 DISK USED  *        34.39 MB
 **********************************************************************************************************************************


 Program * Restricted Hartree-Fock

 Orbital guess generated from atomic densities. Full valence occupancy:    8   8   2   2

 Initial occupancy:   7   6   2   2

 NELEC=   34   SYM=1   MS2= 0   THRE=1.0D-08   THRD=3.2D-06   THRG=3.2D-06  HFMA2=F  DIIS_START=2   DIIS_MAX=10   DIIS_INCORE=F

 Level shifts:    0.00 (CLOSED)    0.00 (OPEN)    0.30 (GAP_MIN)

 ITER           ETOT              DE          GRAD        DDIFF     DIIS  NEXP   TIME(IT)  TIME(TOT)  DIAG
   1     -796.18283155    -796.18283155     0.00D+00     0.43D+00     0     0       0.00      0.00    start
   2     -796.20858758      -0.02575602     0.10D-01     0.27D-01     1     0       0.01      0.01    diag
   3     -796.21086975      -0.00228218     0.32D-02     0.40D-02     2     0       0.00      0.01    diag
   4     -796.21116541      -0.00029566     0.84D-03     0.23D-02     3     0       0.00      0.01    diag
   5     -796.21117381      -0.00000840     0.13D-03     0.41D-03     4     0       0.00      0.01    diag
   6     -796.21117406      -0.00000024     0.23D-04     0.83D-04     5     0       0.00      0.01    diag
   7     -796.21117409      -0.00000003     0.83D-05     0.29D-04     6     0       0.00      0.01    diag
   8     -796.21117409      -0.00000000     0.20D-05     0.79D-05     7     0       0.01      0.02    fixocc
   9     -796.21117409      -0.00000000     0.60D-06     0.25D-05     8     0       0.00      0.02    diag
  10     -796.21117409      -0.00000000     0.12D-06     0.29D-06     0     0       0.00      0.02    diag/orth

 Final occupancy:   7   6   2   2

 !RHF STATE 1.1 Energy               -796.211174089150
  RHF One-electron energy           -1266.737686540093
  RHF Two-electron energy             387.092842603405
  RHF Kinetic energy                  796.281898775864
  RHF Nuclear energy                   83.433669847538
  RHF Virial quotient                  -0.999911181346

 !RHF STATE 1.1 Dipole moment           0.00000000     0.00000000     0.80239959
 Dipole moment /Debye                   0.00000000     0.00000000     2.03949633

 Orbital energies:

           1.1          2.1          3.1          4.1          5.1          6.1          7.1          8.1          9.1
    -91.985660    -8.987897    -6.669757    -6.668215    -1.051785    -0.616045    -0.473814     0.115101     0.421032

           1.2          2.2          3.2          4.2          5.2          6.2          7.2          8.2
    -91.985659    -8.987787    -6.669541    -6.668128    -0.891634    -0.500078     0.100479     0.212821

           1.3          2.3          3.3          4.3
     -6.665126    -0.455269     0.660202     0.685008

           1.4          2.4          3.4          4.4
     -6.665107    -0.334498     0.715154     0.794642


 HOMO      2.4    -0.334498 =      -9.1022eV
 LUMO      7.2     0.100479 =       2.7342eV
 LUMO-HOMO         0.434977 =      11.8363eV

 Orbitals saved in record  2100.2


 **********************************************************************************************************************************
 DATASETS  * FILE   NREC   LENGTH (MB)   RECORD NAMES
              1      19       29.32       500      610      700      900      950      970     1000      129      960     1100   
                                          VAR    BASINP    GEOM    SYMINP    ZMAT    AOBASIS   BASIS     P2S    ABASIS      S 
                                         1400     1410     1200     1210     1080     1600     1650     1300     1700   
                                           T        V       H0       H01     AOSYM     SMH    MOLCAS    ERIS     OPER   

              2       4        0.44       700     1000      520     2100   
                                         GEOM     BASIS   MCVARS     RHF  

 PROGRAMS   *        TOTAL    HF-SCF       INT
 CPU TIMES  *         0.63      0.02      0.47
 REAL TIME  *         1.78 SEC
 DISK USED  *        34.39 MB
 **********************************************************************************************************************************


 PROGRAM * PAPT (Closed-shell)     Authors: C. Hampel, H.-J. Werner, 1991, P.J. Knowles, 2021


 Convergence thresholds:  THRVAR = 1.00D-08  THRDEN = 1.00D-06

 Number of core orbitals:          10 (   4   4   1   1 )
 Number of closed-shell orbitals:   7 (   3   2   1   1 )
 Number of external orbitals:      29 (  10  11   4   4 )

 Molecular orbitals read from record     2100.2  Type=RHF/CANONICAL  

 Number of N-1 electron functions:               7
 Number of N-2 electron functions:              28
 Number of singly external CSFs:                60
 Number of doubly external CSFs:              5443
 Total number of CSFs:                        5504

 Length of J-op  integral file:               0.00 MB
 Length of K-op  integral file:               0.11 MB

 Integral transformation finished. Total CPU:   0.00 sec, npass=  1  Memory used:   0.08 MW

 Reference energy:                   -796.21117409

                        CORR.ENERGY   TOTAL ENERGY   ENERGY CHANGE
 MP2:                   -0.26785167  -796.47902576    -0.26785167

 SCS-MP2 correlation energy:           -0.26663490   (PS=  1.200000  PT=  0.333333)
 SCS-MP2 total energy:               -796.47780899
 Iteration:   1     0.1858D+00
 Iteration:   2     0.3190D+00
 Iteration:   3     0.2512D-01
 Iteration:   4     0.4498D-01
 Iteration:   5     0.7484D-02
 Iteration:   6     0.6157D-02
 Iteration:   7     0.2290D-02
 Iteration:   8     0.3741D-03
 Iteration:   9     0.7292D-03
 Iteration:  10     0.9142D-04
 PAPT operator written to  7000.1
 PAPT orbitals and eigenvalues written to  7000.2

 MP3(D):                -0.29921407  -796.51038816    -0.03136240



 RESULTS
 =======

  Reference energy                   -796.211174089150
  MP3 singlet pair energy              -0.203758256305
  MP3 triplet pair energy              -0.095455811956
  MP3 correlation energy               -0.299214068261

 !MP3 total energy                   -796.510388157411

 Timing summary (sec):

 STEP                 CPU(USER)    SYS     CPU(TOT)    WALL
 CCSD iterations         0.96      0.01      0.97      0.06

 Program statistics:

 Available memory in ccsd:               805306165
 Min. memory needed in ccsd:                 24955
 Max. memory used in ccsd:                   27176
 Max. memory used in cckext:                 73539 ( 1 integral passes)



 **********************************************************************************************************************************
 DATASETS  * FILE   NREC   LENGTH (MB)   RECORD NAMES
              1      21       29.52       500      610      700      900      950      970     1000      129      960     1100   
                                          VAR    BASINP    GEOM    SYMINP    ZMAT    AOBASIS   BASIS     P2S    ABASIS      S 
                                         1400     1410     1200     1210     1080     1600     1650     1300     1700     1380   
                                           T        V       H0       H01     AOSYM     SMH    MOLCAS    ERIS     OPER     JKOP   
                                         7000   
                                        PAPT AO    

              2       5        0.55       700     1000      520     2100     7000   
                                         GEOM     BASIS   MCVARS     RHF     PAPT   

 PROGRAMS   *        TOTAL      PAPT    HF-SCF       INT
 CPU TIMES  *         0.72      0.08      0.02      0.47
 REAL TIME  *         1.98 SEC
 DISK USED  *        34.39 MB
 **********************************************************************************************************************************


 PROGRAM * MP4 (Closed-shell)     Authors: C. Hampel, H.-J. Werner, 1991, M. Deegan, P.J. Knowles, 1992


 Convergence thresholds:  THRVAR = 1.00D-08  THRDEN = 1.00D-06

 MP4(T)     terms to be evaluated (factor= 0.000)


 Number of core orbitals:          10 (   4   4   1   1 )
 Number of closed-shell orbitals:   7 (   3   2   1   1 )
 Number of external orbitals:      29 (  10  11   4   4 )

 Molecular orbitals read from record     7000.2  Type=PAPT/CANONICAL (state 1.1)

 Number of N-1 electron functions:               7
 Number of N-2 electron functions:              28
 Number of singly external CSFs:                60
 Number of doubly external CSFs:              5443
 Total number of CSFs:                        5504

 Length of J-op  integral file:               0.00 MB
 Length of K-op  integral file:               0.11 MB

 Memory could be reduced to 0.13 Mwords without degradation in triples

 Integral transformation finished. Total CPU:   0.00 sec, npass=  1  Memory used:   0.12 MW
 Orbital energies read from record       7000.2  Type=PAPT/CANONICAL (state 1.1)

 Reference energy:                   -796.21117409

                        CORR.ENERGY   TOTAL ENERGY   ENERGY CHANGE
 MP2:                   -0.30510222  -796.51627631    -0.30510222

 SCS-MP2 correlation energy:           -0.30543459   (PS=  1.200000  PT=  0.333333)
 SCS-MP2 total energy:               -796.51660868

 MP3(D):                -0.30517483  -796.51634892    -0.00007261
 MP4(DQ):               -0.30066833  -796.51184242     0.00450649
 MP4(SDQ):              -0.30265261  -796.51382670    -0.00198428

 Norm of t1 vector:      0.04145929      S-energy:    -0.00198428      T1 diagnostic:  0.00783507

 Largest off-diagonal element in interal  block of Fock matrix:  0.94D-01
 Largest off-diagonal element in external block of Fock matrix:  0.97D-01


 Total CPU time for triples:      0.04 sec


 RESULTS
 =======

  Reference energy                   -796.211174089150
  MP4(SDQ) singlet pair energy         -0.207475749501
  MP4(SDQ) triplet pair energy         -0.093192583949
  MP4(SDQ) correlation energy          -0.302652613188

  Triples contribution                 -0.009841616132
  Total correlation energy             -0.312494229320

  MP4(SDQ) total energy              -796.513826702338
 !MP4(SDTQ) total energy             -796.523668318470

 Timing summary (sec):

 STEP                 CPU(USER)    SYS     CPU(TOT)    WALL
 CCSD iterations         1.03      0.01      1.04      0.03
 Triples                 0.04      0.00      0.04      0.04

 Program statistics:

 Available memory in ccsd:               805306165
 Min. memory needed in ccsd:                 24955
 Max. memory used in ccsd:                   27176
 Max. memory used in cckext:                 73539 ( 1 integral passes)



 **********************************************************************************************************************************
 DATASETS  * FILE   NREC   LENGTH (MB)   RECORD NAMES
              1      22       29.69       500      610      700      900      950      970     1000      129      960     1100   
                                          VAR    BASINP    GEOM    SYMINP    ZMAT    AOBASIS   BASIS     P2S    ABASIS      S 
                                         1400     1410     1200     1210     1080     1600     1650     1300     1700     1380   
                                           T        V       H0       H01     AOSYM     SMH    MOLCAS    ERIS     OPER     JKOP   
                                         7000     1380(1)
                                        PAPT AO   JKOP   

              2       5        0.55       700     1000      520     2100     7000   
                                         GEOM     BASIS   MCVARS     RHF     PAPT   

 PROGRAMS   *        TOTAL       MP4      PAPT    HF-SCF       INT
 CPU TIMES  *         0.82      0.10      0.08      0.02      0.47
 REAL TIME  *         2.14 SEC
 DISK USED  *        34.39 MB
 **********************************************************************************************************************************

 Dump information in style XML to xml output                                                                      

 Orbitals will not be exported.

 **********************************************************************************************************************************

 MP4/cc-pVDZ energy=   -796.523668318470

             MP4            PAPT          HF-SCF
   -796.52366832   -796.51038816   -796.21117409
 **********************************************************************************************************************************
 Molpro calculation terminated
