
 Working directory              : /home/jovyan/scratch/molpro.qXPYAyqsB4/
 Global scratch directory       : /home/jovyan/scratch/molpro.qXPYAyqsB4/
 Wavefunction directory         : /home/jovyan/wfu/
 Main file repository           : /home/jovyan/scratch/molpro.qXPYAyqsB4/

 id        : cardiff

 Nodes                nprocs
 jupyter-c-2efrancisan    1
 GA implementation: MPI file
 GA implementation (serial work in mppx): MPI file

 Using customized tuning parameters: mindgm=1; mindgv=20; mindgc=4; mindgr=1; noblas=0; minvec=7
 default implementation of scratch files=df  


 Variables initialized (1031), CPU time= 0.00 sec
 
 
 
 geometry={
            6
     F          0.00000000      0.00000000     -1.79137135
     C          0.00000000      0.00000000     -0.36561703
     H         -0.51179113      0.88644824     -0.01758668
     H         -0.51179113     -0.88644824     -0.01758668
     H          1.02358226      0.00000000     -0.01758668
     F          0.00000000      0.00000000      2.20974841
 }
 basis=cc-pVTZ
 angstrom
 charge=-1
 
 hf; ccsd(t)
 
 
 
 {put,xml;noorbitals,nobasis}
 Commands initialized (841), CPU time= 0.01 sec, 704 directives.
 Default parameters read. Elapsed time= 0.08 sec

 Checking input...
 Passed
1


                                         ***  PROGRAM SYSTEM MOLPRO  ***
                                       Copyright, TTI GmbH Stuttgart, 2015
                                    Version 2023.1 linked Mon Jun  5 13:27:10 2023


 **********************************************************************************************************************************
 LABEL *                                                                                                                                                                 
  (16 PROC) 64 bit serial version                                                        DATE: 02-Aug-23          TIME: 15:53:17  
 **********************************************************************************************************************************

 SHA1:             9738a14712571edd23541b6d7c4f3a3d766f8287
 **********************************************************************************************************************************

 Memory per process:       805 MW
 Total memory per node:   1074 MW
 Total GA space:           268 MW

 GA preallocation disabled
 GA check enabled

 Geometry recognized as XYZ


 Variable memory set to 805.3 MW

 SETTING BASIS          =    CC-PVTZ
 SETTING CHARGE         =        -1.00000000                                  


 Recomputing integrals since basis changed


 Using spherical harmonics

 Library entry F      S cc-pVTZ              selected for orbital group  1
 Library entry F      P cc-pVTZ              selected for orbital group  1
 Library entry F      D cc-pVTZ              selected for orbital group  1
 Library entry F      F cc-pVTZ              selected for orbital group  1
 Library entry C      S cc-pVTZ              selected for orbital group  2
 Library entry C      P cc-pVTZ              selected for orbital group  2
 Library entry C      D cc-pVTZ              selected for orbital group  2
 Library entry C      F cc-pVTZ              selected for orbital group  2
 Library entry H      S cc-pVTZ              selected for orbital group  3
 Library entry H      P cc-pVTZ              selected for orbital group  3
 Library entry H      D cc-pVTZ              selected for orbital group  3


 PROGRAM * SEWARD (Integral evaluation for generally contracted gaussian basis sets)     Author: Roland Lindh, 1990

 Geometry written to block  1 of record 700


 Point group  Cs  



 ATOMIC COORDINATES

 NR  ATOM    CHARGE       X              Y              Z

   1  F       9.00    0.000000000    0.000000000   -3.385201239
   2  C       6.00    0.000000000    0.000000000   -0.690916053
   3  H       1.00   -0.967145069    1.675144397   -0.033234009
   4  H       1.00   -0.967145069   -1.675144397   -0.033234009
   5  H       1.00    1.934290137    0.000000000   -0.033234009
   6  F       9.00    0.000000000    0.000000000    4.175819299

 Bond lengths in Bohr (Angstrom)

 1-2  2.694285186  2-3  2.043042831  2-4  2.043042831  2-5  2.043042831
     ( 1.425754320)     ( 1.081131707)     ( 1.081131707)     ( 1.081131707)

 Bond angles

  1-2-3  108.77865447   1-2-4  108.77865447   1-2-5  108.77865447   3-2-4  110.15481872

  3-2-5  110.15481872   4-2-5  110.15481872

 NUCLEAR CHARGE:                   27
 NUMBER OF PRIMITIVE AOS:         192
 NUMBER OF SYMMETRY AOS:          174
 NUMBER OF CONTRACTIONS:          132   (   84A'  +   48A"  )
 NUMBER OF INNER CORE ORBITALS:     0   (    0A'  +    0A"  )
 NUMBER OF OUTER CORE ORBITALS:     3   (    3A'  +    0A"  )
 NUMBER OF VALENCE ORBITALS:       15   (   11A'  +    4A"  )


 NUCLEAR REPULSION ENERGY   64.36223019


 Eigenvalues of metric

         1 0.121E-02 0.187E-02 0.316E-02 0.530E-02 0.104E-01 0.120E-01 0.123E-01 0.162E-01
         2 0.187E-02 0.104E-01 0.229E-01 0.326E-01 0.409E-01 0.515E-01 0.535E-01 0.785E-01


 Contracted 2-electron integrals neglected if value below      1.0D-11
 AO integral compression algorithm  1   Integral accuracy      1.0D-11

     67.633 MB (compressed) written to integral file ( 38.2%)


 NUMBER OF SORTED TWO-ELECTRON INTEGRALS:   19661271.     BUFFER LENGTH:  32768
 NUMBER OF SEGMENTS:   2  SEGMENT LENGTH:   15998451      RECORD LENGTH: 524288

 Memory used in sort:      16.56 MW

 SORT1 READ    22102002. AND WROTE    14808286. INTEGRALS IN     43 RECORDS. CPU TIME:     0.30 SEC, REAL TIME:     0.43 SEC
 SORT2 READ    14808286. AND WROTE    19661271. INTEGRALS IN    258 RECORDS. CPU TIME:     0.51 SEC, REAL TIME:     0.63 SEC

 FILE SIZES:   FILE 1:    98.2 MBYTE,  FILE 4:   180.4 MBYTE,   TOTAL:    278.6 MBYTE

 OPERATOR DM      FOR CENTER  0  COORDINATES:    0.000000    0.000000    0.000000


 **********************************************************************************************************************************
 DATASETS  * FILE   NREC   LENGTH (MB)   RECORD NAMES
              1      19       85.43       500      610      700      900      950      970     1000      129      960     1100   
                                          VAR    BASINP    GEOM    SYMINP    ZMAT    AOBASIS   BASIS     P2S    ABASIS      S 
                                         1400     1410     1200     1210     1080     1600     1650     1300     1700   
                                           T        V       H0       H01     AOSYM     SMH    MOLCAS    ERIS     OPER   

 PROGRAMS   *        TOTAL       INT
 CPU TIMES  *         3.33      3.19
 REAL TIME  *         4.89 SEC
 DISK USED  *       266.14 MB
 **********************************************************************************************************************************


 Program * Restricted Hartree-Fock

 Orbital guess generated from atomic densities. Full valence occupancy:   14   4

 Initial occupancy:  11   3

 NELEC=   28   SYM=1   MS2= 0   THRE=1.0D-08   THRD=3.2D-06   THRG=3.2D-06  HFMA2=F  DIIS_START=2   DIIS_MAX=10   DIIS_INCORE=F

 Level shifts:    0.00 (CLOSED)    0.00 (OPEN)    0.30 (GAP_MIN)

 ITER           ETOT              DE          GRAD        DDIFF     DIIS  NEXP   TIME(IT)  TIME(TOT)  DIAG
   1     -238.44097730    -238.44097730     0.00D+00     0.11D+00     0     0       0.16      0.32    start
   2     -238.50692146      -0.06594416     0.12D-01     0.17D-01     1     0       0.16      0.48    diag
   3     -238.54607690      -0.03915544     0.91D-02     0.64D-02     2     0       0.16      0.64    diag
   4     -238.54652527      -0.00044837     0.54D-03     0.77D-03     3     0       0.16      0.80    diag
   5     -238.54655471      -0.00002944     0.14D-03     0.23D-03     4     0       0.17      0.97    diag
   6     -238.54655730      -0.00000259     0.55D-04     0.63D-04     5     0       0.16      1.13    diag
   7     -238.54655757      -0.00000027     0.16D-04     0.24D-04     6     0       0.17      1.30    diag
   8     -238.54655759      -0.00000002     0.35D-05     0.72D-05     7     0       0.17      1.47    fixocc
   9     -238.54655759      -0.00000000     0.12D-05     0.21D-05     8     0       0.16      1.63    diag
  10     -238.54655759      -0.00000000     0.30D-06     0.45D-06     0     0       0.16      1.79    diag/orth

 Final occupancy:  11   3

 !RHF STATE 1.1 Energy               -238.546557589723
  RHF One-electron energy            -467.917370840827
  RHF Two-electron energy             165.008583057052
  RHF Kinetic energy                  238.608252282698
  RHF Nuclear energy                   64.362230194053
  RHF Virial quotient                  -0.999741439400

 !RHF STATE 1.1 Dipole moment          -0.00000000     0.00000000    -2.63226025
 Dipole moment /Debye                  -0.00000000     0.00000000    -6.69053821

 Orbital energies:

           1.1          2.1          3.1          4.1          5.1          6.1          7.1          8.1          9.1         10.1
    -26.091887   -25.805926   -11.106600    -1.395934    -1.072018    -0.758799    -0.505331    -0.479646    -0.345848    -0.179321

          11.1         12.1         13.1
     -0.178299     0.322249     0.400007

           1.2          2.2          3.2          4.2          5.2
     -0.505331    -0.345848    -0.179321     0.400007     0.558786


 HOMO     11.1    -0.178299 =      -4.8518eV
 LUMO     12.1     0.322249 =       8.7689eV
 LUMO-HOMO         0.500548 =      13.6206eV

 Orbitals saved in record  2100.2


 **********************************************************************************************************************************
 DATASETS  * FILE   NREC   LENGTH (MB)   RECORD NAMES
              1      19       85.43       500      610      700      900      950      970     1000      129      960     1100   
                                          VAR    BASINP    GEOM    SYMINP    ZMAT    AOBASIS   BASIS     P2S    ABASIS      S 
                                         1400     1410     1200     1210     1080     1600     1650     1300     1700   
                                           T        V       H0       H01     AOSYM     SMH    MOLCAS    ERIS     OPER   

              2       4        0.62       700     1000      520     2100   
                                         GEOM     BASIS   MCVARS     RHF  

 PROGRAMS   *        TOTAL    HF-SCF       INT
 CPU TIMES  *         5.14      1.80      3.19
 REAL TIME  *         6.91 SEC
 DISK USED  *       266.14 MB
 **********************************************************************************************************************************


 PROGRAM * CCSD (Closed-shell coupled cluster)     Authors: C. Hampel, H.-J. Werner, 1991, M. Deegan, P.J. Knowles, 1992


 Convergence thresholds:  THRVAR = 1.00D-08  THRDEN = 1.00D-06

 CCSD(T)     terms to be evaluated (factor= 1.000)


 Number of core orbitals:           3 (   3   0 )
 Number of closed-shell orbitals:  11 (   8   3 )
 Number of external orbitals:     118 (  73  45 )

 Molecular orbitals read from record     2100.2  Type=RHF/CANONICAL  

 Number of N-1 electron functions:              11
 Number of N-2 electron functions:              66
 Number of singly external CSFs:               719
 Number of doubly external CSFs:            426750
 Total number of CSFs:                      427470

 Length of J-op  integral file:               0.00 MB
 Length of K-op  integral file:               0.71 MB
 Length of 3-ext integral record:             0.00 MB

 Memory could be reduced to 12.31 Mwords without degradation in triples

 Integral transformation finished. Total CPU:   0.88 sec, npass=  1  Memory used:   4.82 MW

 Reference energy:                   -238.54655759

 MP2 singlet pair energy:              -0.44709049
 MP2 triplet pair energy:              -0.26214123
 MP2 correlation energy:               -0.70923172
 MP2 total energy:                   -239.25578931

 SCS-MP2 correlation energy:           -0.69961869   (PS=  1.200000  PT=  0.333333)
 SCS-MP2 total energy:               -239.24617628

 ITER.      SQ.NORM     CORR.ENERGY   TOTAL ENERGY   ENERGY CHANGE        DEN1      VAR(S)    VAR(P)  DIIS     TIME  TIME/IT
   1      1.15300671    -0.72313856  -239.26969615    -0.01390684     0.00177405  0.29D-02  0.24D-02  1  1     7.55     1.21
   2      1.16262838    -0.72342731  -239.26998490    -0.00028876    -0.01318938  0.21D-04  0.36D-03  2  2     8.79     1.28
   3      1.16617221    -0.72367293  -239.27023051    -0.00024561    -0.00208068  0.78D-04  0.19D-04  3  3     9.94     1.27
   4      1.16730724    -0.72359436  -239.27015195     0.00007857    -0.00060280  0.70D-05  0.36D-05  4  4    11.12     1.29
   5      1.16788105    -0.72357341  -239.27013100     0.00002095    -0.00019516  0.20D-05  0.44D-06  5  5    12.32     1.29
   6      1.16805796    -0.72356975  -239.27012734     0.00000366    -0.00002165  0.58D-06  0.62D-07  6  6    13.52     1.29
   7      1.16815134    -0.72356299  -239.27012058     0.00000675    -0.00000497  0.35D-07  0.20D-07  6  1    14.72     1.29
   8      1.16818286    -0.72356021  -239.27011780     0.00000278    -0.00000868  0.69D-08  0.21D-08  6  2    15.91     1.28
   9      1.16818592    -0.72356048  -239.27011807    -0.00000027     0.00000207  0.76D-09  0.36D-09  6  3    17.08     1.28
  10      1.16818979    -0.72355998  -239.27011757     0.00000049    -0.00000120  0.18D-09  0.54D-10  6  4    18.24     1.28

 Norm of t1 vector:      0.07199158      S-energy:     0.00000043      T1 diagnostic:  0.01085314
                                                                       D1 diagnostic:  0.03392572
                                                                       D2 diagnostic:  0.13352978 (internal)


 Total CPU time for triples:     18.92 sec


 RESULTS
 =======

  Reference energy                   -238.546557589723
  CCSD singlet pair energy             -0.487963088957
  CCSD triplet pair energy             -0.235597321942
  CCSD correlation energy              -0.723559981180

  Triples (T) contribution             -0.019923356641
  Total correlation energy             -0.743483337821

  CCSD total energy                  -239.270117570903
  CCSD[T] energy                     -239.291170080851
  CCSD-T energy                      -239.289497932963
 !CCSD(T) total energy               -239.290040927544

 Timing summary (sec):

 STEP                 CPU(USER)    SYS     CPU(TOT)    WALL
 Transformation          0.90      0.14      1.04      1.36
 CCSD iterations        17.38      0.70     18.08     12.80
 Triples                18.92      0.79     19.71     20.01

 Program statistics:

 Available memory in ccsd:               805305873
 Min. memory needed in ccsd:               1188137
 Max. memory used in ccsd:                 1556332
 Max. memory used in cckext:               1604837 (10 integral passes)



 **********************************************************************************************************************************
 DATASETS  * FILE   NREC   LENGTH (MB)   RECORD NAMES
              1      20      127.32       500      610      700      900      950      970     1000      129      960     1100   
                                          VAR    BASINP    GEOM    SYMINP    ZMAT    AOBASIS   BASIS     P2S    ABASIS      S 
                                         1400     1410     1200     1210     1080     1600     1650     1300     1700     1380   
                                           T        V       H0       H01     AOSYM     SMH    MOLCAS    ERIS     OPER     JKOP   

              2       4        0.62       700     1000      520     2100   
                                         GEOM     BASIS   MCVARS     RHF  

 PROGRAMS   *        TOTAL   CCSD(T)    HF-SCF       INT
 CPU TIMES  *        36.87     31.72      1.80      3.19
 REAL TIME  *        41.13 SEC
 DISK USED  *       266.14 MB
 **********************************************************************************************************************************

 Dump information in style XML to xml output                                                                      

 Orbitals will not be exported.

 **********************************************************************************************************************************

 CCSD(T)/cc-pVTZ energy=   -239.290040927544

         CCSD(T)          HF-SCF
   -239.29004093   -238.54655759
 **********************************************************************************************************************************
 Molpro calculation terminated
