
 Working directory              : /home/jovyan/scratch/molpro.UIvpTRLDTK/
 Global scratch directory       : /home/jovyan/scratch/molpro.UIvpTRLDTK/
 Wavefunction directory         : /home/jovyan/wfu/
 Main file repository           : /home/jovyan/scratch/molpro.UIvpTRLDTK/

 id        : cardiff

 Nodes                nprocs
 jupyter-c-2efrancisan    1
 GA implementation: MPI file
 GA implementation (serial work in mppx): MPI file

 Using customized tuning parameters: mindgm=1; mindgv=20; mindgc=4; mindgr=1; noblas=0; minvec=7
 default implementation of scratch files=df  


 Variables initialized (1031), CPU time= 0.00 sec
 
 
 
 geometry={
 16
  C    -1.3656935   -1.3512634    0.0000000
  C    -2.7484086   -1.0224421    0.0000000
  C    -2.8156508    0.3249638    0.0000000
  O    -1.5751158    0.8611200    0.0000000
  C    -0.6954624   -0.1694461    0.0000000
  C     0.6954624    0.1694461    0.0000000
  O     1.5751158   -0.8611200    0.0000000
  C     2.8156508   -0.3249638    0.0000000
  C     2.7484086    1.0224421    0.0000000
  C     1.3656935    1.3512634    0.0000000
  H    -0.9206722   -2.3269899    0.0000000
  H    -3.5790533   -1.7013250    0.0000000
  H    -3.6279757    1.0236724    0.0000000
  H     3.6279757   -1.0236724    0.0000000
  H     3.5790533    1.7013250    0.0000000
  H     0.9206722    2.3269899    0.0000000
 }
 basis=cc-pVDZ
 angstrom
 
 
 hf; ccsd
 
 
 
 {put,xml;noorbitals,nobasis}
 Commands initialized (841), CPU time= 0.01 sec, 704 directives.
 Default parameters read. Elapsed time= 0.08 sec

 Checking input...
 Passed
1


                                         ***  PROGRAM SYSTEM MOLPRO  ***
                                       Copyright, TTI GmbH Stuttgart, 2015
                                    Version 2023.1 linked Mon Jun  5 13:27:10 2023


 **********************************************************************************************************************************
 LABEL *                                                                                                                                                                 
  (16 PROC) 64 bit serial version                                                        DATE: 04-Aug-23          TIME: 06:05:18  
 **********************************************************************************************************************************

 SHA1:             9738a14712571edd23541b6d7c4f3a3d766f8287
 **********************************************************************************************************************************

 Memory per process:       805 MW
 Total memory per node:   1074 MW
 Total GA space:           268 MW

 GA preallocation disabled
 GA check enabled

 Geometry recognized as XYZ


 Variable memory set to 805.3 MW

 SETTING BASIS          =    CC-PVDZ


 Recomputing integrals since basis changed


 Using spherical harmonics

 Library entry C      S cc-pVDZ              selected for orbital group  1
 Library entry C      P cc-pVDZ              selected for orbital group  1
 Library entry C      D cc-pVDZ              selected for orbital group  1
 Library entry O      S cc-pVDZ              selected for orbital group  2
 Library entry O      P cc-pVDZ              selected for orbital group  2
 Library entry O      D cc-pVDZ              selected for orbital group  2
 Library entry H      S cc-pVDZ              selected for orbital group  4
 Library entry H      P cc-pVDZ              selected for orbital group  4


 PROGRAM * SEWARD (Integral evaluation for generally contracted gaussian basis sets)     Author: Roland Lindh, 1990

 Geometry written to block  1 of record 700


 Point group  C2h 



 ATOMIC COORDINATES

 NR  ATOM    CHARGE       X              Y              Z

   1  C       6.00   -2.580786685   -2.553517748    0.000000000
   2  C       6.00    2.580786685    2.553517748    0.000000000
   3  C       6.00   -5.193739533   -1.932135547    0.000000000
   4  C       6.00    5.193739533    1.932135547    0.000000000
   5  C       6.00   -5.320808875    0.614092582    0.000000000
   6  C       6.00    5.320808875   -0.614092582    0.000000000
   7  O       8.00   -2.976537477    1.627280960    0.000000000
   8  O       8.00    2.976537477   -1.627280960    0.000000000
   9  C       6.00   -1.314233466   -0.320206722    0.000000000
  10  C       6.00    1.314233466    0.320206722    0.000000000
  11  H       1.00   -1.739818309   -4.397373606    0.000000000
  12  H       1.00    1.739818309    4.397373606    0.000000000
  13  H       1.00   -6.763430522   -3.215038299    0.000000000
  14  H       1.00    6.763430522    3.215038299    0.000000000
  15  H       1.00   -6.855880460    1.934460477    0.000000000
  16  H       1.00    6.855880460   -1.934460477    0.000000000

 Bond lengths in Bohr (Angstrom)

  1- 3  2.685821741   1- 9  2.567456951   1-11  2.026581416   2- 4  2.685821741   2-10  2.567456951
       ( 1.421275658)       ( 1.358639709)       ( 1.072420701)       ( 1.421275658)       ( 1.358639709)

  2-12  2.026581416   3- 5  2.549396851   3-13  2.027256588   4- 6  2.549396851   4-14  2.027256588
       ( 1.072420701)       ( 1.349082715)       ( 1.072777987)       ( 1.349082715)       ( 1.072777987)

  5- 7  2.553851812   5-15  2.024800274   6- 8  2.553851812   6-16  2.024800274   7- 9  2.560461462
       ( 1.351440179)       ( 1.071478162)       ( 1.351440179)       ( 1.071478162)       ( 1.354937855)

  8-10  2.560461462   9-10  2.705359087
       ( 1.354937855)       ( 1.431614376)

 Bond angles

  1- 3- 5  106.23391697   1- 3-13  127.36405031   1- 9- 7  109.95874721   1- 9-10  133.25144880

  2- 4- 6  106.23391697   2- 4-14  127.36405031   2-10- 8  109.95874721   2-10- 9  133.25144880

  3- 1- 9  106.18145271   3- 1-11  127.89430676   3- 5- 7  110.51691111   3- 5-15  133.55692955

  4- 2-10  106.18145271   4- 2-12  127.89430676   4- 6- 8  110.51691111   4- 6-16  133.55692955

  5- 3-13  126.40203272   5- 7- 9  107.10897200   6- 4-14  126.40203272   6- 8-10  107.10897200

  7- 5-15  115.92615933   7- 9-10  116.78980398   8- 6-16  115.92615933   8-10- 9  116.78980398

  9- 1-11  125.92424054  10- 2-12  125.92424054

 NUCLEAR CHARGE:                   70
 NUMBER OF PRIMITIVE AOS:         312
 NUMBER OF SYMMETRY AOS:          302
 NUMBER OF CONTRACTIONS:          170   (   62Ag  +   23Au  +   62Bu  +   23Bg  )
 NUMBER OF INNER CORE ORBITALS:     0   (    0Ag  +    0Au  +    0Bu  +    0Bg  )
 NUMBER OF OUTER CORE ORBITALS:    10   (    5Ag  +    0Au  +    5Bu  +    0Bg  )
 NUMBER OF VALENCE ORBITALS:       46   (   18Ag  +    5Au  +   18Bu  +    5Bg  )


 NUCLEAR REPULSION ENERGY  483.82626621

 Eigenvalues of metric

         1 0.468E-03 0.216E-02 0.500E-02 0.583E-02 0.125E-01 0.172E-01 0.189E-01 0.207E-01
         2 0.759E-01 0.107E+00 0.164E+00 0.171E+00 0.206E+00 0.267E+00 0.346E+00 0.363E+00
         3 0.421E-03 0.775E-03 0.326E-02 0.508E-02 0.967E-02 0.134E-01 0.179E-01 0.193E-01
         4 0.460E-01 0.905E-01 0.143E+00 0.169E+00 0.198E+00 0.247E+00 0.320E+00 0.366E+00


 Contracted 2-electron integrals neglected if value below      1.0D-11
 AO integral compression algorithm  1   Integral accuracy      1.0D-11

     136.053 MB (compressed) written to integral file ( 52.9%)


 NUMBER OF SORTED TWO-ELECTRON INTEGRALS:   28132533.     BUFFER LENGTH:  32768
 NUMBER OF SEGMENTS:   2  SEGMENT LENGTH:   15997308      RECORD LENGTH: 524288

 Memory used in sort:      16.55 MW

 SORT1 READ    32119760. AND WROTE    28007098. INTEGRALS IN     81 RECORDS. CPU TIME:     0.84 SEC, REAL TIME:     1.10 SEC
 SORT2 READ    28007098. AND WROTE    28132533. INTEGRALS IN    519 RECORDS. CPU TIME:     0.80 SEC, REAL TIME:     0.95 SEC

 FILE SIZES:   FILE 1:   167.0 MBYTE,  FILE 4:   339.8 MBYTE,   TOTAL:    506.8 MBYTE

 OPERATOR DM      FOR CENTER  0  COORDINATES:    0.000000    0.000000    0.000000


 **********************************************************************************************************************************
 DATASETS  * FILE   NREC   LENGTH (MB)   RECORD NAMES
              1      19      145.04       500      610      700      900      950      970     1000      129      960     1100   
                                          VAR    BASINP    GEOM    SYMINP    ZMAT    AOBASIS   BASIS     P2S    ABASIS      S 
                                         1400     1410     1200     1210     1080     1600     1650     1300     1700   
                                           T        V       H0       H01     AOSYM     SMH    MOLCAS    ERIS     OPER   

 PROGRAMS   *        TOTAL       INT
 CPU TIMES  *         9.97      9.82
 REAL TIME  *        11.83 SEC
 DISK USED  *       483.97 MB
 **********************************************************************************************************************************


 Program * Restricted Hartree-Fock

 Orbital guess generated from atomic densities. Full valence occupancy:   23   5  23   5

 Initial occupancy:  15   3  14   3

 NELEC=   70   SYM=1   MS2= 0   THRE=1.0D-08   THRD=3.2D-06   THRG=3.2D-06  HFMA2=F  DIIS_START=2   DIIS_MAX=10   DIIS_INCORE=F

 Level shifts:    0.00 (CLOSED)    0.00 (OPEN)    0.30 (GAP_MIN)

 ITER           ETOT              DE          GRAD        DDIFF     DIIS  NEXP   TIME(IT)  TIME(TOT)  DIAG
   1     -456.04260455    -456.04260455     0.00D+00     0.16D+00     0     0       0.15      0.29    start
   2     -456.12475985      -0.08215530     0.71D-02     0.16D-01     1     0       0.14      0.43    diag
   3     -456.14037557      -0.01561572     0.33D-02     0.64D-02     2     0       0.15      0.58    diag
   4     -456.14315466      -0.00277909     0.12D-02     0.25D-02     3     0       0.14      0.72    diag
   5     -456.14331954      -0.00016488     0.29D-03     0.58D-03     4     0       0.15      0.87    diag
   6     -456.14335250      -0.00003296     0.95D-04     0.22D-03     5     0       0.14      1.01    diag
   7     -456.14336158      -0.00000908     0.38D-04     0.14D-03     6     0       0.15      1.16    diag
   8     -456.14336218      -0.00000060     0.11D-04     0.37D-04     7     0       0.15      1.31    fixocc
   9     -456.14336223      -0.00000005     0.44D-05     0.10D-04     8     0       0.14      1.45    diag
  10     -456.14336223      -0.00000000     0.93D-06     0.27D-05     9     0       0.15      1.60    diag/orth
  11     -456.14336223      -0.00000000     0.32D-06     0.81D-06     0     0       0.14      1.74    diag

 Final occupancy:  15   3  14   3

 !RHF STATE 1.1 Energy               -456.143362230322
  RHF One-electron energy           -1580.081805512145
  RHF Two-electron energy             640.112177068304
  RHF Kinetic energy                  456.117308392765
  RHF Nuclear energy                  483.826266213519
  RHF Virial quotient                  -1.000057120914

 !RHF STATE 1.1 Dipole moment           0.00000000     0.00000000     0.00000000
 Dipole moment /Debye                   0.00000000     0.00000000     0.00000000

 Orbital energies:

           1.1          2.1          3.1          4.1          5.1          6.1          7.1          8.1          9.1         10.1
    -20.626975   -11.299132   -11.291730   -11.233713   -11.232684    -1.477302    -1.093147    -1.064147    -0.829508    -0.791147

          11.1         12.1         13.1         14.1         15.1         16.1         17.1
     -0.754446    -0.607793    -0.573790    -0.561906    -0.532353     0.205077     0.232364

           1.2          2.2          3.2          4.2          5.2
     -0.657318    -0.406553    -0.370844     0.109058     0.227765

           1.3          2.3          3.3          4.3          5.3          6.3          7.3          8.3          9.3         10.3
    -20.626972   -11.298231   -11.291730   -11.233715   -11.232685    -1.468670    -1.095175    -0.976542    -0.831116    -0.761488

          11.3         12.3         13.3         14.3         15.3         16.3
     -0.684716    -0.596357    -0.573520    -0.551136     0.205485     0.228830

           1.4          2.4          3.4          4.4          5.4
     -0.629340    -0.400325    -0.272438     0.195069     0.304575


 HOMO      3.4    -0.272438 =      -7.4134eV
 LUMO      4.2     0.109058 =       2.9676eV
 LUMO-HOMO         0.381497 =      10.3810eV

 Orbitals saved in record  2100.2


 **********************************************************************************************************************************
 DATASETS  * FILE   NREC   LENGTH (MB)   RECORD NAMES
              1      19      145.04       500      610      700      900      950      970     1000      129      960     1100   
                                          VAR    BASINP    GEOM    SYMINP    ZMAT    AOBASIS   BASIS     P2S    ABASIS      S 
                                         1400     1410     1200     1210     1080     1600     1650     1300     1700   
                                           T        V       H0       H01     AOSYM     SMH    MOLCAS    ERIS     OPER   

              2       4        0.79       700     1000      520     2100   
                                         GEOM     BASIS   MCVARS     RHF  

 PROGRAMS   *        TOTAL    HF-SCF       INT
 CPU TIMES  *        11.71      1.75      9.82
 REAL TIME  *        13.83 SEC
 DISK USED  *       483.97 MB
 **********************************************************************************************************************************


 PROGRAM * CCSD (Closed-shell coupled cluster)     Authors: C. Hampel, H.-J. Werner, 1991, M. Deegan, P.J. Knowles, 1992


 Convergence thresholds:  THRVAR = 1.00D-08  THRDEN = 1.00D-06

 Number of core orbitals:          10 (   5   0   5   0 )
 Number of closed-shell orbitals:  25 (  10   3   9   3 )
 Number of external orbitals:     135 (  47  20  48  20 )

 Molecular orbitals read from record     2100.2  Type=RHF/CANONICAL  

 Number of N-1 electron functions:              25
 Number of N-2 electron functions:             325
 Number of singly external CSFs:              1022
 Number of doubly external CSFs:           1489419
 Total number of CSFs:                     1490442

 Length of J-op  integral file:               0.00 MB
 Length of K-op  integral file:               0.66 MB
 Length of 3-ext integral record:             0.00 MB

 Integral transformation finished. Total CPU:   1.95 sec, npass=  1  Memory used:   8.81 MW

 Reference energy:                   -456.14336223

 MP2 singlet pair energy:              -0.82654088
 MP2 triplet pair energy:              -0.57101348
 MP2 correlation energy:               -1.39755436
 MP2 total energy:                   -457.54091659

 SCS-MP2 correlation energy:           -1.34714633   (PS=  1.200000  PT=  0.333333)
 SCS-MP2 total energy:               -457.49050856

 ITER.      SQ.NORM     CORR.ENERGY   TOTAL ENERGY   ENERGY CHANGE        DEN1      VAR(S)    VAR(P)  DIIS     TIME  TIME/IT
   1      1.48047700    -1.43242381  -457.57578604    -0.03486945     0.00613668  0.95D-02  0.10D-01  1  1    19.70     6.01
   2      1.51760949    -1.43729433  -457.58065656    -0.00487052    -0.03680673  0.18D-03  0.15D-02  2  2    25.73     6.23
   3      1.53245267    -1.43775124  -457.58111347    -0.00045691    -0.00704828  0.16D-03  0.10D-03  3  3    31.55     6.25
   4      1.53786007    -1.43763757  -457.58099980     0.00011367    -0.00181611  0.10D-04  0.17D-04  4  4    37.46     6.23
   5      1.54006251    -1.43768206  -457.58104429    -0.00004448    -0.00048460  0.38D-05  0.15D-05  5  5    43.39     6.22
   6      1.54062044    -1.43766029  -457.58102252     0.00002176    -0.00006704  0.71D-06  0.27D-06  6  6    49.32     6.22
   7      1.54078478    -1.43765140  -457.58101363     0.00000890    -0.00000854  0.17D-06  0.69D-07  6  2    55.30     6.22
   8      1.54085166    -1.43764979  -457.58101202     0.00000161    -0.00000366  0.31D-07  0.14D-07  6  1    61.26     6.22
   9      1.54086959    -1.43764817  -457.58101040     0.00000162     0.00000408  0.27D-08  0.25D-08  6  4    67.20     6.22
  10      1.54087688    -1.43764836  -457.58101059    -0.00000019    -0.00000108  0.30D-09  0.29D-09  6  3    73.15     6.22
  11      1.54087670    -1.43764847  -457.58101070    -0.00000012     0.00000044  0.53D-10  0.41D-10  6  5    79.17     6.22

 Norm of t1 vector:      0.13532016      S-energy:    -0.00000002      T1 diagnostic:  0.01353202
                                                                       D1 diagnostic:  0.05113095
                                                                       D2 diagnostic:  0.19639899 (internal)

 Doubles amplitudes (print threshold =  0.500E-01):

         I         J         SYM. A    SYM. B    A         B      T(IJ, AB)

        25        25         2         2         1         1     -0.06747645


 RESULTS
 =======

  Reference energy                   -456.143362230321
  CCSD singlet pair energy             -0.933021661405
  CCSD triplet pair energy             -0.504626791779
  CCSD correlation energy              -1.437648473694

 !CCSD total energy                  -457.581010704016

 Timing summary (sec):

 STEP                 CPU(USER)    SYS     CPU(TOT)    WALL
 Transformation          2.06      0.26      2.32      2.52
 CCSD iterations        77.26      2.38     79.64     68.63

 Program statistics:

 Available memory in ccsd:               805303853
 Min. memory needed in ccsd:               3754893
 Max. memory used in ccsd:                 5109661
 Max. memory used in cckext:               5323515 (11 integral passes)



 **********************************************************************************************************************************
 DATASETS  * FILE   NREC   LENGTH (MB)   RECORD NAMES
              1      20      235.08       500      610      700      900      950      970     1000      129      960     1100   
                                          VAR    BASINP    GEOM    SYMINP    ZMAT    AOBASIS   BASIS     P2S    ABASIS      S 
                                         1400     1410     1200     1210     1080     1600     1650     1300     1700     1380   
                                           T        V       H0       H01     AOSYM     SMH    MOLCAS    ERIS     OPER     JKOP   

              2       4        0.79       700     1000      520     2100   
                                         GEOM     BASIS   MCVARS     RHF  

 PROGRAMS   *        TOTAL      CCSD    HF-SCF       INT
 CPU TIMES  *        79.12     67.40      1.75      9.82
 REAL TIME  *        85.04 SEC
 DISK USED  *       483.97 MB
 **********************************************************************************************************************************

 Dump information in style XML to xml output                                                                      

 Orbitals will not be exported.

 **********************************************************************************************************************************

 CCSD/cc-pVDZ energy=   -457.581010704016

            CCSD          HF-SCF
   -457.58101070   -456.14336223
 **********************************************************************************************************************************
 Molpro calculation terminated
