
 Working directory              : /home/jovyan/scratch/molpro.fehrtUbZVn/
 Global scratch directory       : /home/jovyan/scratch/molpro.fehrtUbZVn/
 Wavefunction directory         : /home/jovyan/wfu/
 Main file repository           : /home/jovyan/scratch/molpro.fehrtUbZVn/

 id        : cardiff

 Nodes                nprocs
 jupyter-c-2efrancisan    1
 GA implementation: MPI file
 GA implementation (serial work in mppx): MPI file

 Using customized tuning parameters: mindgm=1; mindgv=20; mindgc=4; mindgr=1; noblas=0; minvec=7
 default implementation of scratch files=df  


 Variables initialized (1031), CPU time= 0.00 sec
 
 
 
 geometry={
 4
  S     1.0572291    0.0000000   -0.6622784
  S    -1.0572291    0.0000000   -0.6622784
  H     1.2093176    0.0000000    0.6627105
  H    -1.2093176    0.0000000    0.6627105
 }
 basis=cc-pVTZ
 angstrom
 
 
 hf; papt;mp2
 
 
 
 {put,xml;noorbitals,nobasis}
 Commands initialized (841), CPU time= 0.01 sec, 704 directives.
 Default parameters read. Elapsed time= 0.08 sec

 Checking input...
 Passed
1


                                         ***  PROGRAM SYSTEM MOLPRO  ***
                                       Copyright, TTI GmbH Stuttgart, 2015
                                    Version 2023.1 linked Mon Jun  5 13:27:10 2023


 **********************************************************************************************************************************
 LABEL *                                                                                                                                                                 
  (16 PROC) 64 bit serial version                                                        DATE: 03-Aug-23          TIME: 21:16:19  
 **********************************************************************************************************************************

 SHA1:             9738a14712571edd23541b6d7c4f3a3d766f8287
 **********************************************************************************************************************************

 Memory per process:       805 MW
 Total memory per node:   1074 MW
 Total GA space:           268 MW

 GA preallocation disabled
 GA check enabled

 Geometry recognized as XYZ


 Variable memory set to 805.3 MW

 SETTING BASIS          =    CC-PVTZ


 Recomputing integrals since basis changed


 Using spherical harmonics

 Library entry S      S cc-pVTZ              selected for orbital group  1
 Library entry S      P cc-pVTZ              selected for orbital group  1
 Library entry S      D cc-pVTZ              selected for orbital group  1
 Library entry S      F cc-pVTZ              selected for orbital group  1
 Library entry H      S cc-pVTZ              selected for orbital group  2
 Library entry H      P cc-pVTZ              selected for orbital group  2
 Library entry H      D cc-pVTZ              selected for orbital group  2


 PROGRAM * SEWARD (Integral evaluation for generally contracted gaussian basis sets)     Author: Roland Lindh, 1990

 Geometry written to block  1 of record 700


 Point group  C2v 



 ATOMIC COORDINATES

 NR  ATOM    CHARGE       X              Y              Z

   1  S      16.00    1.997873450    0.000000000   -1.251524794
   2  S      16.00   -1.997873450    0.000000000   -1.251524794
   3  H       1.00    2.285279062    0.000000000    1.252341345
   4  H       1.00   -2.285279062    0.000000000    1.252341345

 Bond lengths in Bohr (Angstrom)

 1-2  3.995746900  1-3  2.520307050  2-4  2.520307050
     ( 2.114458200)     ( 1.333689056)     ( 1.333689056)

 Bond angles

  1-2-4   96.54802332   2-1-3   96.54802332

 NUCLEAR CHARGE:                   34
 NUMBER OF PRIMITIVE AOS:         162
 NUMBER OF SYMMETRY AOS:          150
 NUMBER OF CONTRACTIONS:           96   (   33A1  +   33B1  +   15B2  +   15A2  )
 NUMBER OF INNER CORE ORBITALS:     2   (    1A1  +    1B1  +    0B2  +    0A2  )
 NUMBER OF OUTER CORE ORBITALS:     8   (    3A1  +    3B1  +    1B2  +    1A2  )
 NUMBER OF VALENCE ORBITALS:       10   (    4A1  +    4B1  +    1B2  +    1A2  )


 NUCLEAR REPULSION ENERGY   83.43366985

 Eigenvalues of metric

         1 0.203E-02 0.647E-02 0.148E-01 0.245E-01 0.373E-01 0.112E+00 0.140E+00 0.152E+00
         2 0.174E-02 0.271E-02 0.823E-02 0.134E-01 0.231E-01 0.295E-01 0.772E-01 0.797E-01
         3 0.294E-01 0.151E+00 0.430E+00 0.448E+00 0.480E+00 0.534E+00 0.824E+00 0.113E+01
         4 0.245E-01 0.119E+00 0.162E+00 0.389E+00 0.425E+00 0.486E+00 0.730E+00 0.755E+00


 Contracted 2-electron integrals neglected if value below      1.0D-11
 AO integral compression algorithm  1   Integral accuracy      1.0D-11

     16.253 MB (compressed) written to integral file ( 47.4%)


 NUMBER OF SORTED TWO-ELECTRON INTEGRALS:    2860080.     BUFFER LENGTH:  32768
 NUMBER OF SEGMENTS:   1  SEGMENT LENGTH:    2860080      RECORD LENGTH: 524288

 Memory used in sort:       3.42 MW

 SORT1 READ     4325808. AND WROTE     2491492. INTEGRALS IN      8 RECORDS. CPU TIME:     0.06 SEC, REAL TIME:     0.15 SEC
 SORT2 READ     2491492. AND WROTE     2860080. INTEGRALS IN     62 RECORDS. CPU TIME:     0.12 SEC, REAL TIME:     0.13 SEC

 FILE SIZES:   FILE 1:    46.5 MBYTE,  FILE 4:    33.6 MBYTE,   TOTAL:     80.1 MBYTE

 OPERATOR DM      FOR CENTER  0  COORDINATES:    0.000000    0.000000    0.000000


 **********************************************************************************************************************************
 DATASETS  * FILE   NREC   LENGTH (MB)   RECORD NAMES
              1      19       39.57       500      610      700      900      950      970     1000      129      960     1100   
                                          VAR    BASINP    GEOM    SYMINP    ZMAT    AOBASIS   BASIS     P2S    ABASIS      S 
                                         1400     1410     1200     1210     1080     1600     1650     1300     1700   
                                           T        V       H0       H01     AOSYM     SMH    MOLCAS    ERIS     OPER   

 PROGRAMS   *        TOTAL       INT
 CPU TIMES  *         1.42      1.28
 REAL TIME  *         2.78 SEC
 DISK USED  *        76.82 MB
 **********************************************************************************************************************************


 Program * Restricted Hartree-Fock

 Orbital guess generated from atomic densities. Full valence occupancy:    8   8   2   2

 Initial occupancy:   7   6   2   2

 NELEC=   34   SYM=1   MS2= 0   THRE=1.0D-08   THRD=3.2D-06   THRG=3.2D-06  HFMA2=F  DIIS_START=2   DIIS_MAX=10   DIIS_INCORE=F

 Level shifts:    0.00 (CLOSED)    0.00 (OPEN)    0.30 (GAP_MIN)

 ITER           ETOT              DE          GRAD        DDIFF     DIIS  NEXP   TIME(IT)  TIME(TOT)  DIAG
   1     -796.21865886    -796.21865886     0.00D+00     0.22D+00     0     0       0.01      0.03    start
   2     -796.24452588      -0.02586702     0.66D-02     0.12D-01     1     0       0.02      0.05    diag
   3     -796.24758786      -0.00306199     0.23D-02     0.22D-02     2     0       0.01      0.06    diag
   4     -796.24808012      -0.00049226     0.66D-03     0.11D-02     3     0       0.02      0.08    diag
   5     -796.24810965      -0.00002952     0.15D-03     0.30D-03     4     0       0.01      0.09    diag
   6     -796.24811036      -0.00000071     0.26D-04     0.63D-04     5     0       0.02      0.11    diag
   7     -796.24811046      -0.00000010     0.10D-04     0.23D-04     6     0       0.01      0.12    diag
   8     -796.24811047      -0.00000001     0.21D-05     0.64D-05     7     0       0.02      0.14    fixocc
   9     -796.24811047      -0.00000000     0.64D-06     0.17D-05     8     0       0.01      0.15    diag
  10     -796.24811047      -0.00000000     0.18D-06     0.30D-06     0     0       0.01      0.16    diag/orth

 Final occupancy:   7   6   2   2

 !RHF STATE 1.1 Energy               -796.248110467275
  RHF One-electron energy           -1266.793543769254
  RHF Two-electron energy             387.111763454441
  RHF Kinetic energy                  796.217570737598
  RHF Nuclear energy                   83.433669847538
  RHF Virial quotient                  -1.000038356011

 !RHF STATE 1.1 Dipole moment           0.00000000     0.00000000     0.70921574
 Dipole moment /Debye                   0.00000000     0.00000000     1.80264660

 Orbital energies:

           1.1          2.1          3.1          4.1          5.1          6.1          7.1          8.1          9.1
    -91.987784    -8.988240    -6.669254    -6.668314    -1.049197    -0.616355    -0.475584     0.097615     0.278003

           1.2          2.2          3.2          4.2          5.2          6.2          7.2          8.2
    -91.987783    -8.988091    -6.669054    -6.668197    -0.889863    -0.500709     0.089050     0.189365

           1.3          2.3          3.3          4.3
     -6.666748    -0.457218     0.407572     0.444853

           1.4          2.4          3.4          4.4
     -6.666731    -0.335886     0.467808     0.549230


 HOMO      2.4    -0.335886 =      -9.1399eV
 LUMO      7.2     0.089050 =       2.4232eV
 LUMO-HOMO         0.424936 =      11.5631eV

 Orbitals saved in record  2100.2


 **********************************************************************************************************************************
 DATASETS  * FILE   NREC   LENGTH (MB)   RECORD NAMES
              1      19       39.57       500      610      700      900      950      970     1000      129      960     1100   
                                          VAR    BASINP    GEOM    SYMINP    ZMAT    AOBASIS   BASIS     P2S    ABASIS      S 
                                         1400     1410     1200     1210     1080     1600     1650     1300     1700   
                                           T        V       H0       H01     AOSYM     SMH    MOLCAS    ERIS     OPER   

              2       4        0.48       700     1000      520     2100   
                                         GEOM     BASIS   MCVARS     RHF  

 PROGRAMS   *        TOTAL    HF-SCF       INT
 CPU TIMES  *         1.59      0.17      1.28
 REAL TIME  *         2.99 SEC
 DISK USED  *        76.82 MB
 **********************************************************************************************************************************


 PROGRAM * PAPT (Closed-shell)     Authors: C. Hampel, H.-J. Werner, 1991, P.J. Knowles, 2021


 Convergence thresholds:  THRVAR = 1.00D-08  THRDEN = 1.00D-06

 Number of core orbitals:          10 (   4   4   1   1 )
 Number of closed-shell orbitals:   7 (   3   2   1   1 )
 Number of external orbitals:      79 (  26  27  13  13 )

 Molecular orbitals read from record     2100.2  Type=RHF/CANONICAL  

 Number of N-1 electron functions:               7
 Number of N-2 electron functions:              28
 Number of singly external CSFs:               158
 Number of doubly external CSFs:             39323
 Total number of CSFs:                       39482

 Length of J-op  integral file:               0.00 MB
 Length of K-op  integral file:               0.24 MB

 Integral transformation finished. Total CPU:   0.03 sec, npass=  1  Memory used:   0.12 MW

 Reference energy:                   -796.24811047

                        CORR.ENERGY   TOTAL ENERGY   ENERGY CHANGE
 MP2:                   -0.35658148  -796.60469195    -0.35658148

 SCS-MP2 correlation energy:           -0.35799149   (PS=  1.200000  PT=  0.333333)
 SCS-MP2 total energy:               -796.60610195
 Iteration:   1     0.1922D+00
 Iteration:   2     0.3444D+00
 Iteration:   3     0.3448D-01
 Iteration:   4     0.3041D-01
 Iteration:   5     0.1426D-01
 Iteration:   6     0.4407D-02
 Iteration:   7     0.7339D-01
 Iteration:   8     0.1109D-02
 Iteration:   9     0.1153D-02
 Iteration:  10     0.4276D-03
 Iteration:  11     0.1628D-03
 Iteration:  12     0.3395D-02
 Iteration:  13     0.2322D-04
 PAPT operator written to  7000.1
 PAPT orbitals and eigenvalues written to  7000.2

 MP3(D):                -0.39325331  -796.64136378    -0.03667182



 RESULTS
 =======

  Reference energy                   -796.248110467276
  MP3 singlet pair energy              -0.271890467960
  MP3 triplet pair energy              -0.121362839852
  MP3 correlation energy               -0.393253307812

 !MP3 total energy                   -796.641363775087

 Timing summary (sec):

 STEP                 CPU(USER)    SYS     CPU(TOT)    WALL
 Transformation          0.03      0.01      0.04      0.05
 CCSD iterations         2.07      0.01      2.08      0.17

 Program statistics:

 Available memory in ccsd:               805306165
 Min. memory needed in ccsd:                140005
 Max. memory used in ccsd:                  168210
 Max. memory used in cckext:                217847 ( 1 integral passes)



 **********************************************************************************************************************************
 DATASETS  * FILE   NREC   LENGTH (MB)   RECORD NAMES
              1      21       40.40       500      610      700      900      950      970     1000      129      960     1100   
                                          VAR    BASINP    GEOM    SYMINP    ZMAT    AOBASIS   BASIS     P2S    ABASIS      S 
                                         1400     1410     1200     1210     1080     1600     1650     1300     1700     1380   
                                           T        V       H0       H01     AOSYM     SMH    MOLCAS    ERIS     OPER     JKOP   
                                         7000   
                                        PAPT AO    

              2       5        0.64       700     1000      520     2100     7000   
                                         GEOM     BASIS   MCVARS     RHF     PAPT   

 PROGRAMS   *        TOTAL      PAPT    HF-SCF       INT
 CPU TIMES  *         1.81      0.21      0.17      1.28
 REAL TIME  *         3.26 SEC
 DISK USED  *        76.82 MB
 **********************************************************************************************************************************


 PROGRAM * MP2 (Closed-shell)     Authors: C. Hampel, H.-J. Werner, 1991, M. Deegan, P.J. Knowles, 1992


 Convergence thresholds:  THRVAR = 1.00D-08  THRDEN = 1.00D-06

 Number of core orbitals:          10 (   4   4   1   1 )
 Number of closed-shell orbitals:   7 (   3   2   1   1 )
 Number of external orbitals:      79 (  26  27  13  13 )

 Molecular orbitals read from record     7000.2  Type=PAPT/CANONICAL (state 1.1)

 Number of N-1 electron functions:               7
 Number of N-2 electron functions:              28
 Number of singly external CSFs:               158
 Number of doubly external CSFs:             39323
 Total number of CSFs:                       39482

 Length of J-op  integral file:               0.00 MB
 Length of K-op  integral file:               0.24 MB

 Integral transformation finished. Total CPU:   0.03 sec, npass=  1  Memory used:   0.12 MW
 Orbital energies read from record       7000.2  Type=PAPT/CANONICAL (state 1.1)

 Memory needed for MP2:                      0.01 MW

 SCS-MP2 correlation energy:           -0.403378401049   (PS=  1.200000  PT=  0.333333)
 SCS-MP2 total energy:               -796.651488868325


  Reference energy                   -796.248110467276
  MP2 singlet pair energy              -0.267151968183
  MP2 triplet pair energy              -0.133065063048
  MP2 correlation energy               -0.400217031231

 !MP2 total energy                   -796.648327498507


 **********************************************************************************************************************************
 DATASETS  * FILE   NREC   LENGTH (MB)   RECORD NAMES
              1      21       40.40       500      610      700      900      950      970     1000      129      960     1100   
                                          VAR    BASINP    GEOM    SYMINP    ZMAT    AOBASIS   BASIS     P2S    ABASIS      S 
                                         1400     1410     1200     1210     1080     1600     1650     1300     1700     1380   
                                           T        V       H0       H01     AOSYM     SMH    MOLCAS    ERIS     OPER     JKOP   
                                         7000   
                                        PAPT AO    

              2       5        0.64       700     1000      520     2100     7000   
                                         GEOM     BASIS   MCVARS     RHF     PAPT   

 PROGRAMS   *        TOTAL       MP2      PAPT    HF-SCF       INT
 CPU TIMES  *         1.91      0.10      0.21      0.17      1.28
 REAL TIME  *         3.38 SEC
 DISK USED  *        76.82 MB
 **********************************************************************************************************************************

 Dump information in style XML to xml output                                                                      

 Orbitals will not be exported.

 **********************************************************************************************************************************

 MP2/cc-pVTZ energy=   -796.648327498507

             MP2            PAPT          HF-SCF
   -796.64832750   -796.64136378   -796.24811047
 **********************************************************************************************************************************
 Molpro calculation terminated
