
 Working directory              : /home/jovyan/scratch/molpro.AHG3kkik7I/
 Global scratch directory       : /home/jovyan/scratch/molpro.AHG3kkik7I/
 Wavefunction directory         : /home/jovyan/wfu/
 Main file repository           : /home/jovyan/scratch/molpro.AHG3kkik7I/

 id        : cardiff

 Nodes                nprocs
 jupyter-c-2efrancisan    1
 GA implementation: MPI file
 GA implementation (serial work in mppx): MPI file

 Using customized tuning parameters: mindgm=1; mindgv=20; mindgc=4; mindgr=1; noblas=0; minvec=7
 default implementation of scratch files=df  


 Variables initialized (1031), CPU time= 0.00 sec
 
 
 
 geometry={
           15
     C         -5.76745308     -0.23855881      0.00098197
     H         -5.43699475     -1.27862615     -0.13962232
     H         -5.26493952      0.37563760     -0.75972990
     H         -6.84967954     -0.20282894     -0.19007522
     C         -5.43686852      0.26196541      1.41687754
     H         -5.78556007      1.30004079      1.53903509
     H         -6.00279075     -0.34487505      2.14602077
     C         -3.97190847      0.18462218      1.73816540
     H         -3.52089719     -0.81551063      1.68982361
     C         -3.19033013      1.22351380      2.05655312
     H         -3.64348235      2.22177651      2.10034189
     C         -1.72602012      1.14530619      2.36798530
     H         -1.13539318      1.76498143      1.67365476
     H         -1.51110898      1.52289784      3.38101944
     H         -1.35458411      0.11292488      2.30385288
 }
 basis=cc-pVDZ
 angstrom
 
 
 hf; ccsd(t)
 
 
 
 {put,xml;noorbitals,nobasis}
 Commands initialized (841), CPU time= 0.01 sec, 704 directives.
 Default parameters read. Elapsed time= 0.08 sec

 Checking input...
 Passed
1


                                         ***  PROGRAM SYSTEM MOLPRO  ***
                                       Copyright, TTI GmbH Stuttgart, 2015
                                    Version 2023.1 linked Mon Jun  5 13:27:10 2023


 **********************************************************************************************************************************
 LABEL *                                                                                                                                                                 
  (16 PROC) 64 bit serial version                                                        DATE: 03-Aug-23          TIME: 18:20:10  
 **********************************************************************************************************************************

 SHA1:             9738a14712571edd23541b6d7c4f3a3d766f8287
 **********************************************************************************************************************************

 Memory per process:       805 MW
 Total memory per node:   1074 MW
 Total GA space:           268 MW

 GA preallocation disabled
 GA check enabled

 Geometry recognized as XYZ


 Variable memory set to 805.3 MW

 SETTING BASIS          =    CC-PVDZ


 Recomputing integrals since basis changed


 Using spherical harmonics

 Library entry C      S cc-pVDZ              selected for orbital group  1
 Library entry C      P cc-pVDZ              selected for orbital group  1
 Library entry C      D cc-pVDZ              selected for orbital group  1
 Library entry H      S cc-pVDZ              selected for orbital group  2
 Library entry H      P cc-pVDZ              selected for orbital group  2


 PROGRAM * SEWARD (Integral evaluation for generally contracted gaussian basis sets)     Author: Roland Lindh, 1990

 Geometry written to block  1 of record 700


 Point group  C1  



 ATOMIC COORDINATES

 NR  ATOM    CHARGE       X              Y              Z

   1  C       6.00  -10.898906758   -0.450810816    0.001855654
   2  H       1.00  -10.274431019   -2.416253239   -0.263847946
   3  H       1.00   -9.949293756    0.709852186   -1.435681440
   4  H       1.00  -12.944018372   -0.383291147   -0.359190109
   5  C       6.00  -10.274192478    0.495042879    2.677510503
   6  H       1.00  -10.933124010    2.456721044    2.908354816
   7  H       1.00  -11.343630501   -0.651719392    4.055391513
   8  C       6.00   -7.505819200    0.348885357    3.284656565
   9  H       1.00   -6.653531402   -1.541091742    3.193303822
  10  C       6.00   -6.028850193    2.312105992    3.886322158
  11  H       1.00   -6.885183781    4.198549114    3.969070940
  12  C       6.00   -3.261705312    2.164315028    4.474843684
  13  H       1.00   -2.145582154    3.335331518    3.162749124
  14  H       1.00   -2.855582117    2.877859833    6.389200764
  15  H       1.00   -2.559792981    0.213397096    4.353650975

 Bond lengths in Bohr (Angstrom)

 1-2  2.079310528  1-3  2.077358023  1-4  2.077834080  1-5  2.905862352  5-6  2.082225032
     ( 1.100323746)     ( 1.099290524)     ( 1.099542443)     ( 1.537716135)     ( 1.101866035)

  5- 7  2.087418853   5- 8  2.837935688   8- 9  2.075271850   8-10  2.529362409  10-11  2.073360130
       ( 1.104614487)       ( 1.501770892)       ( 1.098186569)       ( 1.338480945)       ( 1.097174931)

 10-12  2.832894376  12-13  2.082931266  12-14  2.082989502  12-15  2.076884535
       ( 1.499103145)       ( 1.102239758)       ( 1.102270575)       ( 1.099039966)

 Bond angles

  1-5-6  109.91969555   1-5-7  108.59246012   1-5-8  112.95086496   2-1-3  107.60234959

  2-1-4  107.70465059   2-1-5  111.14741299   3-1-4  108.15132801   3-1-5  110.91873721

  4- 1- 5  111.16262658   5- 8- 9  115.98310560   5- 8-10  125.48801671   6- 5- 7  106.39485771

  6- 5- 8  109.48136118   7- 5- 8  109.28428565   8-10-11  118.32807254   8-10-12  125.40140491

  9- 8-10  118.52412533  10-12-13  111.29757780  10-12-14  111.31543848  10-12-15  111.53090074

 11-10-12  116.27031382  13-12-14  106.37191480  13-12-15  108.07396663  14-12-15  108.03012824

 NUCLEAR CHARGE:                   40
 NUMBER OF PRIMITIVE AOS:         205
 NUMBER OF SYMMETRY AOS:          200
 NUMBER OF CONTRACTIONS:          120   (  120A   )
 NUMBER OF INNER CORE ORBITALS:     0   (    0A   )
 NUMBER OF OUTER CORE ORBITALS:     5   (    5A   )
 NUMBER OF VALENCE ORBITALS:       30   (   30A   )


 NUCLEAR REPULSION ENERGY  168.07439278


 Eigenvalues of metric

         1 0.172E-02 0.283E-02 0.403E-02 0.686E-02 0.135E-01 0.166E-01 0.171E-01 0.214E-01


 Contracted 2-electron integrals neglected if value below      1.0D-11
 AO integral compression algorithm  1   Integral accuracy      1.0D-11

     105.120 MB (compressed) written to integral file ( 48.8%)


 NUMBER OF SORTED TWO-ELECTRON INTEGRALS:   26357430.     BUFFER LENGTH:  32768
 NUMBER OF SEGMENTS:   2  SEGMENT LENGTH:   15997996      RECORD LENGTH: 524288

 Memory used in sort:      16.56 MW

 SORT1 READ    26890109. AND WROTE    23924012. INTEGRALS IN     69 RECORDS. CPU TIME:     0.34 SEC, REAL TIME:     0.54 SEC
 SORT2 READ    23924012. AND WROTE    26357430. INTEGRALS IN    401 RECORDS. CPU TIME:     0.50 SEC, REAL TIME:     0.62 SEC

 FILE SIZES:   FILE 1:   135.9 MBYTE,  FILE 4:   289.5 MBYTE,   TOTAL:    425.4 MBYTE

 OPERATOR DM      FOR CENTER  0  COORDINATES:    0.000000    0.000000    0.000000


 **********************************************************************************************************************************
 DATASETS  * FILE   NREC   LENGTH (MB)   RECORD NAMES
              1      19      118.47       500      610      700      900      950      970     1000      129      960     1100   
                                          VAR    BASINP    GEOM    SYMINP    ZMAT    AOBASIS   BASIS     P2S    ABASIS      S 
                                         1400     1410     1200     1210     1080     1600     1650     1300     1700   
                                           T        V       H0       H01     AOSYM     SMH    MOLCAS    ERIS     OPER   

 PROGRAMS   *        TOTAL       INT
 CPU TIMES  *         4.60      4.46
 REAL TIME  *         6.13 SEC
 DISK USED  *       406.24 MB
 **********************************************************************************************************************************


 Program * Restricted Hartree-Fock

 Orbital guess generated from atomic densities. Full valence occupancy:   35

 Initial occupancy:  20

 NELEC=   40   SYM=1   MS2= 0   THRE=1.0D-08   THRD=3.2D-06   THRG=3.2D-06  HFMA2=F  DIIS_START=2   DIIS_MAX=10   DIIS_INCORE=F

 Level shifts:    0.00 (CLOSED)    0.00 (OPEN)    0.30 (GAP_MIN)

 ITER           ETOT              DE          GRAD        DDIFF     DIIS  NEXP   TIME(IT)  TIME(TOT)  DIAG
   1     -195.09444954    -195.09444954     0.00D+00     0.93D-01     0     0       0.28      0.54    start
   2     -195.15290638      -0.05845684     0.43D-02     0.92D-02     1     0       0.27      0.81    diag
   3     -195.15923012      -0.00632373     0.15D-02     0.34D-02     2     0       0.27      1.08    diag
   4     -195.16017015      -0.00094004     0.49D-03     0.12D-02     3     0       0.27      1.35    diag
   5     -195.16018752      -0.00001737     0.73D-04     0.20D-03     4     0       0.27      1.62    diag
   6     -195.16019025      -0.00000272     0.33D-04     0.67D-04     5     0       0.27      1.89    diag
   7     -195.16019034      -0.00000010     0.52D-05     0.14D-04     6     0       0.28      2.17    diag
   8     -195.16019035      -0.00000001     0.12D-05     0.31D-05     7     0       0.28      2.45    fixocc
   9     -195.16019035      -0.00000000     0.34D-06     0.79D-06     0     0       0.27      2.72    diag

 Final occupancy:  20

 !RHF STATE 1.1 Energy               -195.160190351025
  RHF One-electron energy            -594.631850889526
  RHF Two-electron energy             231.397267757900
  RHF Kinetic energy                  194.783255538825
  RHF Nuclear energy                  168.074392780601
  RHF Virial quotient                  -1.001935149976

 !RHF STATE 1.1 Dipole moment           0.00662338     0.01719609     0.00486409
 Dipole moment /Debye                   0.01683494     0.04370810     0.01236328

 Orbital energies:

           1.1          2.1          3.1          4.1          5.1          6.1          7.1          8.1          9.1         10.1
    -11.229443   -11.229301   -11.227308   -11.225607   -11.222153    -1.082944    -1.015356    -0.922692    -0.827636    -0.740367

          11.1         12.1         13.1         14.1         15.1         16.1         17.1         18.1         19.1         20.1
     -0.616407    -0.615610    -0.566168    -0.556574    -0.547005    -0.508966    -0.500975    -0.478209    -0.466394    -0.339541

          21.1         22.1
      0.174883     0.199378


 HOMO     20.1    -0.339541 =      -9.2394eV
 LUMO     21.1     0.174883 =       4.7588eV
 LUMO-HOMO         0.514424 =      13.9982eV

 Orbitals saved in record  2100.2


 **********************************************************************************************************************************
 DATASETS  * FILE   NREC   LENGTH (MB)   RECORD NAMES
              1      19      118.47       500      610      700      900      950      970     1000      129      960     1100   
                                          VAR    BASINP    GEOM    SYMINP    ZMAT    AOBASIS   BASIS     P2S    ABASIS      S 
                                         1400     1410     1200     1210     1080     1600     1650     1300     1700   
                                           T        V       H0       H01     AOSYM     SMH    MOLCAS    ERIS     OPER   

              2       4        0.84       700     1000      520     2100   
                                         GEOM     BASIS   MCVARS     RHF  

 PROGRAMS   *        TOTAL    HF-SCF       INT
 CPU TIMES  *         7.33      2.73      4.46
 REAL TIME  *         9.20 SEC
 DISK USED  *       406.24 MB
 **********************************************************************************************************************************


 PROGRAM * CCSD (Closed-shell coupled cluster)     Authors: C. Hampel, H.-J. Werner, 1991, M. Deegan, P.J. Knowles, 1992


 Convergence thresholds:  THRVAR = 1.00D-08  THRDEN = 1.00D-06

 CCSD(T)     terms to be evaluated (factor= 1.000)


 Number of core orbitals:           5 (   5 )
 Number of closed-shell orbitals:  15 (  15 )
 Number of external orbitals:     100 ( 100 )

 Molecular orbitals read from record     2100.2  Type=RHF/CANONICAL  

 Number of N-1 electron functions:              15
 Number of N-2 electron functions:             120
 Number of singly external CSFs:              1500
 Number of doubly external CSFs:           1125750
 Total number of CSFs:                     1127251

 Length of J-op  integral file:               0.00 MB
 Length of K-op  integral file:               1.05 MB
 Length of 3-ext integral record:             0.00 MB

 Memory could be reduced to 20.47 Mwords without degradation in triples

 Integral transformation finished. Total CPU:   1.84 sec, npass=  1  Memory used:  17.10 MW

 Reference energy:                   -195.16019035

 MP2 singlet pair energy:              -0.46310313
 MP2 triplet pair energy:              -0.24232954
 MP2 correlation energy:               -0.70543267
 MP2 total energy:                   -195.86562302

 SCS-MP2 correlation energy:           -0.70650658   (PS=  1.200000  PT=  0.333333)
 SCS-MP2 total energy:               -195.86669693

 ITER.      SQ.NORM     CORR.ENERGY   TOTAL ENERGY   ENERGY CHANGE        DEN1      VAR(S)    VAR(P)  DIIS     TIME  TIME/IT
   1      1.28324409    -0.76704677  -195.92723712    -0.06161411    -0.04063147  0.21D-02  0.48D-02  1  1    15.45     6.03
   2      1.30833096    -0.77237259  -195.93256294    -0.00532581    -0.02286531  0.57D-04  0.48D-03  2  2    21.52     6.21
   3      1.31424961    -0.77263921  -195.93282956    -0.00026662    -0.00293873  0.14D-04  0.43D-04  3  3    27.64     6.39
   4      1.31644603    -0.77272803  -195.93291838    -0.00008883    -0.00073318  0.84D-06  0.42D-05  4  4    33.74     6.55
   5      1.31693370    -0.77273264  -195.93292299    -0.00000461    -0.00011295  0.58D-07  0.47D-06  5  5    39.81     6.55
   6      1.31702676    -0.77272724  -195.93291759     0.00000540    -0.00001515  0.43D-08  0.31D-07  6  6    45.92     6.52
   7      1.31703809    -0.77272776  -195.93291811    -0.00000052     0.00000168  0.12D-08  0.29D-08  6  2    52.12     6.58
   8      1.31704175    -0.77272757  -195.93291793     0.00000018    -0.00000077  0.56D-10  0.26D-09  6  1    58.35     6.57

 Norm of t1 vector:      0.06438531      S-energy:     0.00000016      T1 diagnostic:  0.00831211
                                                                       D1 diagnostic:  0.02818944
                                                                       D2 diagnostic:  0.19164657 (internal)

 Doubles amplitudes (print threshold =  0.500E-01):

         I         J         SYM. A    SYM. B    A         B      T(IJ, AB)

        15        15         1         1         1         1     -0.07711738


 Total CPU time for triples:     80.94 sec


 RESULTS
 =======

  Reference energy                   -195.160190351026
  CCSD singlet pair energy             -0.548532232951
  CCSD triplet pair energy             -0.224195497058
  CCSD correlation energy              -0.772727574072

  Triples (T) contribution             -0.024851924277
  Total correlation energy             -0.797579498348

  CCSD total energy                  -195.932917925097
  CCSD[T] energy                     -195.958313886694
  CCSD-T energy                      -195.957518135256
 !CCSD(T) total energy               -195.957769849374

 Timing summary (sec):

 STEP                 CPU(USER)    SYS     CPU(TOT)    WALL
 Transformation          1.93      0.19      2.12      2.44
 CCSD iterations        56.54      1.92     58.46     52.68
 Triples                80.94      2.15     83.09     83.70

 Program statistics:

 Available memory in ccsd:               805305448
 Min. memory needed in ccsd:               2984299
 Max. memory used in ccsd:                 3969799
 Max. memory used in cckext:               3643426 ( 8 integral passes)



 **********************************************************************************************************************************
 DATASETS  * FILE   NREC   LENGTH (MB)   RECORD NAMES
              1      20      196.31       500      610      700      900      950      970     1000      129      960     1100   
                                          VAR    BASINP    GEOM    SYMINP    ZMAT    AOBASIS   BASIS     P2S    ABASIS      S 
                                         1400     1410     1200     1210     1080     1600     1650     1300     1700     1380   
                                           T        V       H0       H01     AOSYM     SMH    MOLCAS    ERIS     OPER     JKOP   

              2       4        0.84       700     1000      520     2100   
                                         GEOM     BASIS   MCVARS     RHF  

 PROGRAMS   *        TOTAL   CCSD(T)    HF-SCF       INT
 CPU TIMES  *       139.13    131.80      2.73      4.46
 REAL TIME  *       148.09 SEC
 DISK USED  *       406.24 MB
 **********************************************************************************************************************************

 Dump information in style XML to xml output                                                                      

 Orbitals will not be exported.

 **********************************************************************************************************************************

 CCSD(T)/cc-pVDZ energy=   -195.957769849374

         CCSD(T)          HF-SCF
   -195.95776985   -195.16019035
 **********************************************************************************************************************************
 Molpro calculation terminated
