
 Working directory              : /home/jovyan/scratch/molpro.XobiG2S8OH/
 Global scratch directory       : /home/jovyan/scratch/molpro.XobiG2S8OH/
 Wavefunction directory         : /home/jovyan/wfu/
 Main file repository           : /home/jovyan/scratch/molpro.XobiG2S8OH/

 id        : cardiff

 Nodes                nprocs
 jupyter-c-2efrancisan    1
 GA implementation: MPI file
 GA implementation (serial work in mppx): MPI file

 Using customized tuning parameters: mindgm=1; mindgv=20; mindgc=4; mindgr=1; noblas=0; minvec=7
 default implementation of scratch files=df  


 Variables initialized (1031), CPU time= 0.00 sec
 
 
 
 geometry={
            2
     O          0.00000000      0.00000000      0.48102212
     H          0.00000000      0.00000000     -0.48102212
 }
 basis=cc-pVTZ
 angstrom
 charge=-1
 
 hf
 
 
 
 {put,xml;noorbitals,nobasis}
 Commands initialized (841), CPU time= 0.01 sec, 704 directives.
 Default parameters read. Elapsed time= 0.08 sec

 Checking input...
 Passed
1


                                         ***  PROGRAM SYSTEM MOLPRO  ***
                                       Copyright, TTI GmbH Stuttgart, 2015
                                    Version 2023.1 linked Mon Jun  5 13:27:10 2023


 **********************************************************************************************************************************
 LABEL *                                                                                                                                                                 
  (16 PROC) 64 bit serial version                                                        DATE: 02-Aug-23          TIME: 15:33:16  
 **********************************************************************************************************************************

 SHA1:             9738a14712571edd23541b6d7c4f3a3d766f8287
 **********************************************************************************************************************************

 Memory per process:       805 MW
 Total memory per node:   1074 MW
 Total GA space:           268 MW

 GA preallocation disabled
 GA check enabled

 Geometry recognized as XYZ


 Variable memory set to 805.3 MW

 SETTING BASIS          =    CC-PVTZ
 SETTING CHARGE         =        -1.00000000                                  


 Recomputing integrals since basis changed


 Using spherical harmonics

 Library entry O      S cc-pVTZ              selected for orbital group  1
 Library entry O      P cc-pVTZ              selected for orbital group  1
 Library entry O      D cc-pVTZ              selected for orbital group  1
 Library entry O      F cc-pVTZ              selected for orbital group  1
 Library entry H      S cc-pVTZ              selected for orbital group  2
 Library entry H      P cc-pVTZ              selected for orbital group  2
 Library entry H      D cc-pVTZ              selected for orbital group  2


 PROGRAM * SEWARD (Integral evaluation for generally contracted gaussian basis sets)     Author: Roland Lindh, 1990

 Geometry written to block  1 of record 700


 Point group  C2v 



 ATOMIC COORDINATES

 NR  ATOM    CHARGE       X              Y              Z

   1  O       8.00    0.000000000    0.000000000    0.909000067
   2  H       1.00    0.000000000    0.000000000   -0.909000067

 Bond lengths in Bohr (Angstrom)

 1-2  1.818000133
     ( 0.962044240)

 NUCLEAR CHARGE:                    9
 NUMBER OF PRIMITIVE AOS:          64
 NUMBER OF SYMMETRY AOS:           58
 NUMBER OF CONTRACTIONS:           44   (   20A1  +   10B1  +   10B2  +    4A2  )
 NUMBER OF INNER CORE ORBITALS:     0   (    0A1  +    0B1  +    0B2  +    0A2  )
 NUMBER OF OUTER CORE ORBITALS:     1   (    1A1  +    0B1  +    0B2  +    0A2  )
 NUMBER OF VALENCE ORBITALS:        5   (    3A1  +    1B1  +    1B2  +    0A2  )


 NUCLEAR REPULSION ENERGY    4.40043972

 EXTRA SYMMETRY OF AOS IN SYMMETRY 1:   1 1 1 1 1 1 1 1 2 1   2 1 2 1 1 1 1 1 1 2
 EXTRA SYMMETRY OF AOS IN SYMMETRY 2:   1 1 1 1 1 1 2 1 1 1
 EXTRA SYMMETRY OF AOS IN SYMMETRY 3:   1 1 1 1 1 1 2 1 1 1

 Eigenvalues of metric

         1 0.387E-02 0.751E-02 0.108E-01 0.537E-01 0.112E+00 0.150E+00 0.284E+00 0.413E+00
         2 0.447E-01 0.121E+00 0.266E+00 0.439E+00 0.561E+00 0.100E+01 0.114E+01 0.133E+01
         3 0.447E-01 0.121E+00 0.266E+00 0.439E+00 0.561E+00 0.100E+01 0.114E+01 0.133E+01
         4 0.452E+00 0.756E+00 0.118E+01 0.161E+01


 Contracted 2-electron integrals neglected if value below      1.0D-11
 AO integral compression algorithm  1   Integral accuracy      1.0D-11

     0.786 MB (compressed) written to integral file ( 79.2%)


 NUMBER OF SORTED TWO-ELECTRON INTEGRALS:     137265.     BUFFER LENGTH:  32768
 NUMBER OF SEGMENTS:   1  SEGMENT LENGTH:     137265      RECORD LENGTH: 524288

 Memory used in sort:       0.69 MW

 SORT1 READ      164358. AND WROTE      102890. INTEGRALS IN      1 RECORDS. CPU TIME:     0.00 SEC, REAL TIME:     0.03 SEC
 SORT2 READ      102890. AND WROTE      137265. INTEGRALS IN      3 RECORDS. CPU TIME:     0.02 SEC, REAL TIME:     0.02 SEC

 FILE SIZES:   FILE 1:    30.8 MBYTE,  FILE 4:     4.3 MBYTE,   TOTAL:     35.1 MBYTE

 OPERATOR DM      FOR CENTER  0  COORDINATES:    0.000000    0.000000    0.000000


 **********************************************************************************************************************************
 DATASETS  * FILE   NREC   LENGTH (MB)   RECORD NAMES
              1      19       29.21       500      610      700      900      950      970     1000      129      960     1100   
                                          VAR    BASINP    GEOM    SYMINP    ZMAT    AOBASIS   BASIS     P2S    ABASIS      S 
                                         1400     1410     1200     1210     1080     1600     1650     1300     1700   
                                           T        V       H0       H01     AOSYM     SMH    MOLCAS    ERIS     OPER   

 PROGRAMS   *        TOTAL       INT
 CPU TIMES  *         0.53      0.39
 REAL TIME  *         2.32 SEC
 DISK USED  *        33.80 MB
 **********************************************************************************************************************************


 Program * Restricted Hartree-Fock

 Orbital guess generated from atomic densities. Full valence occupancy:    4   1   1   0

 Initial occupancy:   3   1   1   0

 NELEC=   10   SYM=1   MS2= 0   THRE=1.0D-08   THRD=3.2D-06   THRG=3.2D-06  HFMA2=F  DIIS_START=2   DIIS_MAX=10   DIIS_INCORE=F

 Level shifts:    0.00 (CLOSED)    0.00 (OPEN)    0.30 (GAP_MIN)

 ITER           ETOT              DE          GRAD        DDIFF     DIIS  NEXP   TIME(IT)  TIME(TOT)  DIAG
   1      -75.26163213     -75.26163213     0.00D+00     0.23D+00     0     0       0.00      0.00    start
   2      -75.32682023      -0.06518809     0.46D-01     0.70D-01     1     0       0.00      0.00    diag
   3      -75.38265942      -0.05583919     0.36D-01     0.28D-01     2     0       0.00      0.00    diag
   4      -75.38285440      -0.00019498     0.16D-02     0.17D-02     3     0       0.01      0.01    diag
   5      -75.38288160      -0.00002720     0.42D-03     0.77D-03     4     0       0.00      0.01    diag
   6      -75.38288490      -0.00000329     0.12D-03     0.32D-03     5     0       0.00      0.01    diag
   7      -75.38288503      -0.00000013     0.23D-04     0.71D-04     6     0       0.00      0.01    diag
   8      -75.38288503      -0.00000000     0.45D-05     0.15D-04     7     0       0.00      0.01    fixocc
   9      -75.38288503      -0.00000000     0.41D-06     0.12D-05     8     0       0.00      0.01    diag
  10      -75.38288503      -0.00000000     0.44D-07     0.81D-07     0     0       0.00      0.01    diag/orth

 Final occupancy:   3   1   1   0

 !RHF STATE 1.1 Energy                -75.382885032781
  RHF One-electron energy            -117.012136796289
  RHF Two-electron energy              37.228812042332
  RHF Kinetic energy                   75.559192816019
  RHF Nuclear energy                    4.400439721175
  RHF Virial quotient                  -0.997666626963

 !RHF STATE 1.1 Dipole moment           0.00000000     0.00000000    -1.28265180
 Dipole moment /Debye                   0.00000000     0.00000000    -3.26017570

 Orbital energies:

           1.1          2.1          3.1          4.1          5.1
    -20.104823    -0.847851    -0.198297     0.425880     0.913609

           1.2          2.2          3.2
     -0.063143     1.161981     1.237831

           1.3          2.3          3.3
     -0.063143     1.161981     1.237831

           1.4          2.4
      2.152260     3.901077


 HOMO      1.3    -0.063143 =      -1.7182eV
 LUMO      4.1     0.425880 =      11.5888eV
 LUMO-HOMO         0.489023 =      13.3070eV

 Orbitals saved in record  2100.2


 **********************************************************************************************************************************
 DATASETS  * FILE   NREC   LENGTH (MB)   RECORD NAMES
              1      19       29.21       500      610      700      900      950      970     1000      129      960     1100   
                                          VAR    BASINP    GEOM    SYMINP    ZMAT    AOBASIS   BASIS     P2S    ABASIS      S 
                                         1400     1410     1200     1210     1080     1600     1650     1300     1700   
                                           T        V       H0       H01     AOSYM     SMH    MOLCAS    ERIS     OPER   

              2       4        0.40       700     1000      520     2100   
                                         GEOM     BASIS   MCVARS     RHF  

 PROGRAMS   *        TOTAL    HF-SCF       INT
 CPU TIMES  *         0.56      0.03      0.39
 REAL TIME  *         2.52 SEC
 DISK USED  *        33.80 MB
 **********************************************************************************************************************************

 Dump information in style XML to xml output                                                                      

 Orbitals will not be exported.

 **********************************************************************************************************************************

 HF/cc-pVTZ energy=    -75.382885032781

          HF-SCF
    -75.38288503
 **********************************************************************************************************************************
 Molpro calculation terminated
