
 Working directory              : /home/jovyan/scratch/molpro.rJKcg6v46I/
 Global scratch directory       : /home/jovyan/scratch/molpro.rJKcg6v46I/
 Wavefunction directory         : /home/jovyan/wfu/
 Main file repository           : /home/jovyan/scratch/molpro.rJKcg6v46I/

 id        : cardiff

 Nodes                nprocs
 jupyter-c-2efrancisan    1
 GA implementation: MPI file
 GA implementation (serial work in mppx): MPI file

 Using customized tuning parameters: mindgm=1; mindgv=20; mindgc=4; mindgr=1; noblas=0; minvec=7
 default implementation of scratch files=df  


 Variables initialized (1031), CPU time= 0.01 sec
 
 
 
 geometry={
 8
  2NH3 (Full point group Cs)
  H -0.155611 0.718127 0.000000
  H -0.421026 2.115582 0.813988
  H -0.255988 -2.122455 0.815316
  H 1.046178 -1.572039 0.000000
  N 0.033104 1.718343 0.000000
  N 0.033104 -1.594392 0.000000
  H -0.255988 -2.122455 -0.815316
  H -0.421026 2.115582 -0.813988
 }
 basis=cc-pVTZ
 angstrom
 
 
 hf
 
 
 
 {put,xml;noorbitals,nobasis}
 Commands initialized (841), CPU time= 0.01 sec, 704 directives.
 Default parameters read. Elapsed time= 0.08 sec

 Checking input...
 Passed
1


                                         ***  PROGRAM SYSTEM MOLPRO  ***
                                       Copyright, TTI GmbH Stuttgart, 2015
                                    Version 2023.1 linked Mon Jun  5 13:27:10 2023


 **********************************************************************************************************************************
 LABEL *                                                                                                                                                                 
  (16 PROC) 64 bit serial version                                                        DATE: 03-Aug-23          TIME: 12:34:21  
 **********************************************************************************************************************************

 SHA1:             9738a14712571edd23541b6d7c4f3a3d766f8287
 **********************************************************************************************************************************

 Memory per process:       805 MW
 Total memory per node:   1074 MW
 Total GA space:           268 MW

 GA preallocation disabled
 GA check enabled

 Geometry recognized as XYZ


 Variable memory set to 805.3 MW

 SETTING BASIS          =    CC-PVTZ


 Recomputing integrals since basis changed


 Using spherical harmonics

 Library entry H      S cc-pVTZ              selected for orbital group  1
 Library entry H      P cc-pVTZ              selected for orbital group  1
 Library entry H      D cc-pVTZ              selected for orbital group  1
 Library entry N      S cc-pVTZ              selected for orbital group  2
 Library entry N      P cc-pVTZ              selected for orbital group  2
 Library entry N      D cc-pVTZ              selected for orbital group  2
 Library entry N      F cc-pVTZ              selected for orbital group  2


 PROGRAM * SEWARD (Integral evaluation for generally contracted gaussian basis sets)     Author: Roland Lindh, 1990

 Geometry written to block  1 of record 700


 Point group  Cs  



 ATOMIC COORDINATES

 NR  ATOM    CHARGE       X              Y              Z

   1  H       1.00   -0.294062172    1.357063353    0.000000000
   2  H       1.00   -0.795623831    3.997870574    1.538214389
   3  H       1.00   -0.795623831    3.997870574   -1.538214389
   4  H       1.00   -0.483747211   -4.010858662    1.540723945
   5  H       1.00   -0.483747211   -4.010858662   -1.540723945
   6  H       1.00    1.976989898   -2.970723167    0.000000000
   7  N       7.00    0.062557494    3.247197658    0.000000000
   8  N       7.00    0.062557494   -3.012964215    0.000000000

 Bond lengths in Bohr (Angstrom)

 1-7  1.923482591  2-7  1.914703246  3-7  1.914703246  4-8  1.915221249  5-8  1.915221249
     ( 1.017863153)     ( 1.013217323)     ( 1.013217323)     ( 1.013491439)     ( 1.013491439)

 6-8  1.914898362
     ( 1.013320574)

 Bond angles

  1-7-2  107.58744481   1-7-3  107.58744481   2-7-3  106.90618281   4-8-5  107.11678308

  4-8-6  107.25757323   5-8-6  107.25757323

 NUCLEAR CHARGE:                   20
 NUMBER OF PRIMITIVE AOS:         196
 NUMBER OF SYMMETRY AOS:          180
 NUMBER OF CONTRACTIONS:          144   (   88A'  +   56A"  )
 NUMBER OF INNER CORE ORBITALS:     0   (    0A'  +    0A"  )
 NUMBER OF OUTER CORE ORBITALS:     2   (    2A'  +    0A"  )
 NUMBER OF VALENCE ORBITALS:       14   (   10A'  +    4A"  )


 NUCLEAR REPULSION ENERGY   39.48477590


 Eigenvalues of metric

         1 0.153E-02 0.164E-02 0.355E-02 0.370E-02 0.379E-02 0.404E-02 0.856E-02 0.864E-02
         2 0.342E-02 0.419E-02 0.852E-02 0.859E-02 0.353E-01 0.388E-01 0.424E-01 0.437E-01


 Contracted 2-electron integrals neglected if value below      1.0D-11
 AO integral compression algorithm  1   Integral accuracy      1.0D-11

     90.702 MB (compressed) written to integral file ( 36.6%)


 NUMBER OF SORTED TWO-ELECTRON INTEGRALS:   27693700.     BUFFER LENGTH:  32768
 NUMBER OF SEGMENTS:   2  SEGMENT LENGTH:   15992692      RECORD LENGTH: 524288

 Memory used in sort:      16.55 MW

 SORT1 READ    30975333. AND WROTE    20534284. INTEGRALS IN     60 RECORDS. CPU TIME:     0.43 SEC, REAL TIME:     0.64 SEC
 SORT2 READ    20534284. AND WROTE    27693700. INTEGRALS IN    346 RECORDS. CPU TIME:     0.63 SEC, REAL TIME:     0.73 SEC

 FILE SIZES:   FILE 1:   121.4 MBYTE,  FILE 4:   251.7 MBYTE,   TOTAL:    373.1 MBYTE

 OPERATOR DM      FOR CENTER  0  COORDINATES:    0.000000    0.000000    0.000000


 **********************************************************************************************************************************
 DATASETS  * FILE   NREC   LENGTH (MB)   RECORD NAMES
              1      19      107.30       500      610      700      900      950      970     1000      129      960     1100   
                                          VAR    BASINP    GEOM    SYMINP    ZMAT    AOBASIS   BASIS     P2S    ABASIS      S 
                                         1400     1410     1200     1210     1080     1600     1650     1300     1700   
                                           T        V       H0       H01     AOSYM     SMH    MOLCAS    ERIS     OPER   

 PROGRAMS   *        TOTAL       INT
 CPU TIMES  *         4.07      3.94
 REAL TIME  *         5.75 SEC
 DISK USED  *       356.27 MB
 **********************************************************************************************************************************


 Program * Restricted Hartree-Fock

 Orbital guess generated from atomic densities. Full valence occupancy:   12   4

 Initial occupancy:   8   2

 NELEC=   20   SYM=1   MS2= 0   THRE=1.0D-08   THRD=3.2D-06   THRG=3.2D-06  HFMA2=F  DIIS_START=2   DIIS_MAX=10   DIIS_INCORE=F

 Level shifts:    0.00 (CLOSED)    0.00 (OPEN)    0.30 (GAP_MIN)

 ITER           ETOT              DE          GRAD        DDIFF     DIIS  NEXP   TIME(IT)  TIME(TOT)  DIAG
   1     -112.39031626    -112.39031626     0.00D+00     0.82D-01     0     0       0.24      0.46    start
   2     -112.43007871      -0.03976244     0.82D-02     0.11D-01     1     0       0.23      0.69    diag
   3     -112.43865709      -0.00857838     0.39D-02     0.35D-02     2     0       0.23      0.92    diag
   4     -112.43909735      -0.00044026     0.62D-03     0.76D-03     3     0       0.24      1.16    diag
   5     -112.43912178      -0.00002443     0.13D-03     0.18D-03     4     0       0.23      1.39    diag
   6     -112.43912295      -0.00000117     0.25D-04     0.48D-04     5     0       0.24      1.63    diag
   7     -112.43912299      -0.00000005     0.51D-05     0.10D-04     6     0       0.23      1.86    diag
   8     -112.43912300      -0.00000001     0.20D-05     0.30D-05     7     0       0.24      2.10    fixocc
   9     -112.43912300      -0.00000000     0.57D-06     0.81D-06     0     0       0.24      2.34    diag

 Final occupancy:   8   2

 !RHF STATE 1.1 Energy               -112.439122999087
  RHF One-electron energy            -230.607970578068
  RHF Two-electron energy              78.684071677627
  RHF Kinetic energy                  112.295922416105
  RHF Nuclear energy                   39.484775901353
  RHF Virial quotient                  -1.001275207326

 !RHF STATE 1.1 Dipole moment          -0.36283903    -0.90056955     0.00000000
 Dipole moment /Debye                  -0.92224484    -2.28901947     0.00000000

 Orbital energies:

           1.1          2.1          3.1          4.1          5.1          6.1          7.1          8.1          9.1         10.1
    -15.546532   -15.506510    -1.148785    -1.109520    -0.636809    -0.599304    -0.437837    -0.399282     0.127817     0.171190

           1.2          2.2          3.2          4.2
     -0.635935    -0.599390     0.207868     0.232890


 HOMO      8.1    -0.399282 =     -10.8650eV
 LUMO      9.1     0.127817 =       3.4781eV
 LUMO-HOMO         0.527100 =      14.3431eV

 Orbitals saved in record  2100.2


 **********************************************************************************************************************************
 DATASETS  * FILE   NREC   LENGTH (MB)   RECORD NAMES
              1      19      107.30       500      610      700      900      950      970     1000      129      960     1100   
                                          VAR    BASINP    GEOM    SYMINP    ZMAT    AOBASIS   BASIS     P2S    ABASIS      S 
                                         1400     1410     1200     1210     1080     1600     1650     1300     1700   
                                           T        V       H0       H01     AOSYM     SMH    MOLCAS    ERIS     OPER   

              2       4        0.68       700     1000      520     2100   
                                         GEOM     BASIS   MCVARS     RHF  

 PROGRAMS   *        TOTAL    HF-SCF       INT
 CPU TIMES  *         6.42      2.35      3.94
 REAL TIME  *         8.37 SEC
 DISK USED  *       356.27 MB
 **********************************************************************************************************************************

 Dump information in style XML to xml output                                                                      

 Orbitals will not be exported.

 **********************************************************************************************************************************

 HF/cc-pVTZ energy=   -112.439122999087

          HF-SCF
   -112.43912300
 **********************************************************************************************************************************
 Molpro calculation terminated
