
 Working directory              : /home/jovyan/scratch/molpro.r5kC8TGCPf/
 Global scratch directory       : /home/jovyan/scratch/molpro.r5kC8TGCPf/
 Wavefunction directory         : /home/jovyan/wfu/
 Main file repository           : /home/jovyan/scratch/molpro.r5kC8TGCPf/

 id        : cardiff

 Nodes                nprocs
 jupyter-c-2efrancisan    1
 GA implementation: MPI file
 GA implementation (serial work in mppx): MPI file

 Using customized tuning parameters: mindgm=1; mindgv=20; mindgc=4; mindgr=1; noblas=0; minvec=7
 default implementation of scratch files=df  


 Variables initialized (1031), CPU time= 0.01 sec
 
 
 
 geometry={
 10
  B     0.0000000    0.0000000   -3.0934966
  H     0.5950210    1.0306066   -3.1108480
  H     0.5950210   -1.0306066   -3.1108480
  H    -1.1900420    0.0000000   -3.1108480
  P     0.0000000    0.0000000    2.8489335
  H     0.5938246    1.0285344    3.6029291
  H     0.5938246   -1.0285344    3.6029291
  H    -1.1876492    0.0000000    3.6029291
  H     0.0000000    0.0000000   -0.9896633
  H     0.0000000    0.0000000   -0.2420169
 }
 basis=cc-pVDZ
 angstrom
 
 
 hf; ccsd(t)
 
 
 
 {put,xml;noorbitals,nobasis}
 Commands initialized (841), CPU time= 0.01 sec, 704 directives.
 Default parameters read. Elapsed time= 0.08 sec

 Checking input...
 Passed
1


                                         ***  PROGRAM SYSTEM MOLPRO  ***
                                       Copyright, TTI GmbH Stuttgart, 2015
                                    Version 2023.1 linked Mon Jun  5 13:27:10 2023


 **********************************************************************************************************************************
 LABEL *                                                                                                                                                                 
  (16 PROC) 64 bit serial version                                                        DATE: 02-Aug-23          TIME: 15:53:54  
 **********************************************************************************************************************************

 SHA1:             9738a14712571edd23541b6d7c4f3a3d766f8287
 **********************************************************************************************************************************

 Memory per process:       805 MW
 Total memory per node:   1074 MW
 Total GA space:           268 MW

 GA preallocation disabled
 GA check enabled

 Geometry recognized as XYZ


 Variable memory set to 805.3 MW

 SETTING BASIS          =    CC-PVDZ


 Recomputing integrals since basis changed


 Using spherical harmonics

 Library entry B      S cc-pVDZ              selected for orbital group  1
 Library entry B      P cc-pVDZ              selected for orbital group  1
 Library entry B      D cc-pVDZ              selected for orbital group  1
 Library entry H      S cc-pVDZ              selected for orbital group  2
 Library entry H      P cc-pVDZ              selected for orbital group  2
 Library entry P      S cc-pVDZ              selected for orbital group  3
 Library entry P      P cc-pVDZ              selected for orbital group  3
 Library entry P      D cc-pVDZ              selected for orbital group  3


 PROGRAM * SEWARD (Integral evaluation for generally contracted gaussian basis sets)     Author: Roland Lindh, 1990

 Geometry written to block  1 of record 700


 Point group  Cs  



 ATOMIC COORDINATES

 NR  ATOM    CHARGE       X              Y              Z

   1  B       5.00    0.000000000    0.000000000   -5.845861341
   2  H       1.00    1.124426728    1.947564216   -5.878650735
   3  H       1.00    1.124426728   -1.947564216   -5.878650735
   4  H       1.00   -2.248853457    0.000000000   -5.878650735
   5  P      15.00    0.000000000    0.000000000    5.383704062
   6  H       1.00    1.122165860    1.943648326    6.808549245
   7  H       1.00    1.122165860   -1.943648326    6.808549245
   8  H       1.00   -2.244331720    0.000000000    6.808549245
   9  H       1.00    0.000000000    0.000000000   -1.870192593
  10  H       1.00    0.000000000    0.000000000   -0.457345659

 Bond lengths in Bohr (Angstrom)

 1-2  2.249092481  1-3  2.249092481  1-4  2.249092487  5-6  2.658422244  5-7  2.658422244
     ( 1.190168486)     ( 1.190168486)     ( 1.190168489)     ( 1.406776469)     ( 1.406776469)

  5- 8  2.658422214   9-10  1.412846934
       ( 1.406776452)       ( 0.747646400)

 Bond angles

  2-1-3  119.97890921   2-1-4  119.97890947   3-1-4  119.97890947   6-5-7   93.96217127

  6-5-8   93.96217000   7-5-8   93.96217000

 NUCLEAR CHARGE:                   28
 NUMBER OF PRIMITIVE AOS:         125
 NUMBER OF SYMMETRY AOS:          123
 NUMBER OF CONTRACTIONS:           72   (   49A'  +   23A"  )
 NUMBER OF INNER CORE ORBITALS:     1   (    1A'  +    0A"  )
 NUMBER OF OUTER CORE ORBITALS:     5   (    4A'  +    1A"  )
 NUMBER OF VALENCE ORBITALS:       16   (   12A'  +    4A"  )


 NUCLEAR REPULSION ENERGY   47.01365845


 Eigenvalues of metric

         1 0.513E-02 0.904E-02 0.127E-01 0.257E-01 0.318E-01 0.411E-01 0.495E-01 0.520E-01
         2 0.257E-01 0.411E-01 0.495E-01 0.864E-01 0.106E+00 0.129E+00 0.404E+00 0.420E+00


 Contracted 2-electron integrals neglected if value below      1.0D-11
 AO integral compression algorithm  1   Integral accuracy      1.0D-11

     5.243 MB (compressed) written to integral file ( 37.4%)


 NUMBER OF SORTED TWO-ELECTRON INTEGRALS:    1803451.     BUFFER LENGTH:  32768
 NUMBER OF SEGMENTS:   1  SEGMENT LENGTH:    1803451      RECORD LENGTH: 524288

 Memory used in sort:       2.36 MW

 SORT1 READ     1735343. AND WROTE     1159549. INTEGRALS IN      4 RECORDS. CPU TIME:     0.03 SEC, REAL TIME:     0.10 SEC
 SORT2 READ     1159549. AND WROTE     1803451. INTEGRALS IN     20 RECORDS. CPU TIME:     0.07 SEC, REAL TIME:     0.11 SEC

 FILE SIZES:   FILE 1:    35.5 MBYTE,  FILE 4:    16.8 MBYTE,   TOTAL:     52.4 MBYTE

 OPERATOR DM      FOR CENTER  0  COORDINATES:    0.000000    0.000000    0.000000


 **********************************************************************************************************************************
 DATASETS  * FILE   NREC   LENGTH (MB)   RECORD NAMES
              1      19       33.04       500      610      700      900      950      970     1000      129      960     1100   
                                          VAR    BASINP    GEOM    SYMINP    ZMAT    AOBASIS   BASIS     P2S    ABASIS      S 
                                         1400     1410     1200     1210     1080     1600     1650     1300     1700   
                                           T        V       H0       H01     AOSYM     SMH    MOLCAS    ERIS     OPER   

 PROGRAMS   *        TOTAL       INT
 CPU TIMES  *         0.98      0.85
 REAL TIME  *         2.54 SEC
 DISK USED  *        50.43 MB
 **********************************************************************************************************************************


 Program * Restricted Hartree-Fock

 Orbital guess generated from atomic densities. Full valence occupancy:   17   5

 Initial occupancy:  11   3

 NELEC=   28   SYM=1   MS2= 0   THRE=1.0D-08   THRD=3.2D-06   THRG=3.2D-06  HFMA2=F  DIIS_START=2   DIIS_MAX=10   DIIS_INCORE=F

 Level shifts:    0.00 (CLOSED)    0.00 (OPEN)    0.30 (GAP_MIN)

 ITER           ETOT              DE          GRAD        DDIFF     DIIS  NEXP   TIME(IT)  TIME(TOT)  DIAG
   1     -369.95679612    -369.95679612     0.00D+00     0.17D+00     0     0       0.01      0.03    start
   2     -369.98274557      -0.02594945     0.48D-02     0.12D-01     1     0       0.02      0.05    diag
   3     -369.98504057      -0.00229500     0.13D-02     0.35D-02     2     0       0.02      0.07    diag
   4     -369.98517837      -0.00013780     0.30D-03     0.83D-03     3     0       0.02      0.09    diag
   5     -369.98518370      -0.00000534     0.60D-04     0.26D-03     4     0       0.01      0.10    diag
   6     -369.98518383      -0.00000013     0.96D-05     0.36D-04     5     0       0.02      0.12    diag
   7     -369.98518384      -0.00000001     0.21D-05     0.11D-04     6     0       0.02      0.14    diag
   8     -369.98518384      -0.00000000     0.23D-06     0.12D-05     7     0       0.02      0.16    fixocc
   9     -369.98518384      -0.00000000     0.41D-07     0.17D-06     0     0       0.02      0.18    diag

 Final occupancy:  11   3

 !RHF STATE 1.1 Energy               -369.985183840655
  RHF One-electron energy            -602.374902988423
  RHF Two-electron energy             185.376060695796
  RHF Kinetic energy                  369.899921323664
  RHF Nuclear energy                   47.013658451972
  RHF Virial quotient                  -1.000230501582

 !RHF STATE 1.1 Dipole moment          -0.00000000     0.00000000     0.52938254
 Dipole moment /Debye                  -0.00000001     0.00000000     1.34555620

 Orbital energies:

           1.1          2.1          3.1          4.1          5.1          6.1          7.1          8.1          9.1         10.1
    -79.951814    -7.613644    -7.495153    -5.389064    -5.387443    -0.863978    -0.708087    -0.589436    -0.526433    -0.490285

          11.1         12.1         13.1
     -0.390275     0.083640     0.169832

           1.2          2.2          3.2          4.2          5.2
     -5.389064    -0.526433    -0.490285     0.169832     0.265497


 HOMO     11.1    -0.390275 =     -10.6199eV
 LUMO     12.1     0.083640 =       2.2760eV
 LUMO-HOMO         0.473915 =      12.8959eV

 Orbitals saved in record  2100.2


 **********************************************************************************************************************************
 DATASETS  * FILE   NREC   LENGTH (MB)   RECORD NAMES
              1      19       33.04       500      610      700      900      950      970     1000      129      960     1100   
                                          VAR    BASINP    GEOM    SYMINP    ZMAT    AOBASIS   BASIS     P2S    ABASIS      S 
                                         1400     1410     1200     1210     1080     1600     1650     1300     1700   
                                           T        V       H0       H01     AOSYM     SMH    MOLCAS    ERIS     OPER   

              2       4        0.58       700     1000      520     2100   
                                         GEOM     BASIS   MCVARS     RHF  

 PROGRAMS   *        TOTAL    HF-SCF       INT
 CPU TIMES  *         1.16      0.18      0.85
 REAL TIME  *         2.77 SEC
 DISK USED  *        50.43 MB
 **********************************************************************************************************************************


 PROGRAM * CCSD (Closed-shell coupled cluster)     Authors: C. Hampel, H.-J. Werner, 1991, M. Deegan, P.J. Knowles, 1992


 Convergence thresholds:  THRVAR = 1.00D-08  THRDEN = 1.00D-06

 CCSD(T)     terms to be evaluated (factor= 1.000)


 Number of core orbitals:           6 (   5   1 )
 Number of closed-shell orbitals:   8 (   6   2 )
 Number of external orbitals:      58 (  38  20 )

 Molecular orbitals read from record     2100.2  Type=RHF/CANONICAL  

 Number of N-1 electron functions:               8
 Number of N-2 electron functions:              36
 Number of singly external CSFs:               268
 Number of doubly external CSFs:             55352
 Total number of CSFs:                       55621

 Length of J-op  integral file:               0.00 MB
 Length of K-op  integral file:               0.26 MB
 Length of 3-ext integral record:             0.00 MB

 Memory could be reduced to 1.25 Mwords without degradation in triples

 Integral transformation finished. Total CPU:   0.06 sec, npass=  1  Memory used:   0.61 MW

 Reference energy:                   -369.98518384

 MP2 singlet pair energy:              -0.20663283
 MP2 triplet pair energy:              -0.05011099
 MP2 correlation energy:               -0.25674382
 MP2 total energy:                   -370.24192766

 SCS-MP2 correlation energy:           -0.27913956   (PS=  1.200000  PT=  0.333333)
 SCS-MP2 total energy:               -370.26432341

 ITER.      SQ.NORM     CORR.ENERGY   TOTAL ENERGY   ENERGY CHANGE        DEN1      VAR(S)    VAR(P)  DIIS     TIME  TIME/IT
   1      1.14522299    -0.31275045  -370.29793429    -0.05600663    -0.04156880  0.63D-03  0.39D-02  1  1     1.68     0.13
   2      1.16760632    -0.31727838  -370.30246222    -0.00452793    -0.01774160  0.25D-04  0.14D-03  2  2     1.78     0.12
   3      1.17066830    -0.31735866  -370.30254250    -0.00008028    -0.00103676  0.66D-05  0.81D-05  3  3     1.88     0.12
   4      1.17144966    -0.31740033  -370.30258417    -0.00004167    -0.00023663  0.88D-06  0.10D-05  4  4     1.98     0.11
   5      1.17167558    -0.31739398  -370.30257782     0.00000635    -0.00005398  0.12D-06  0.11D-06  5  5     2.08     0.11
   6      1.17172052    -0.31738846  -370.30257230     0.00000551    -0.00000519  0.22D-07  0.12D-07  6  6     2.18     0.11
   7      1.17173494    -0.31738912  -370.30257296    -0.00000065    -0.00000262  0.30D-08  0.14D-08  6  1     2.27     0.11
   8      1.17173689    -0.31738914  -370.30257298    -0.00000003     0.00000007  0.62D-09  0.22D-09  6  2     2.37     0.11

 Norm of t1 vector:      0.04793154      S-energy:     0.00000005      T1 diagnostic:  0.00847318
                                                                       D1 diagnostic:  0.01731466
                                                                       D2 diagnostic:  0.16308329 (internal)


 Total CPU time for triples:      0.47 sec


 RESULTS
 =======

  Reference energy                   -369.985183840654
  CCSD singlet pair energy             -0.264543353454
  CCSD triplet pair energy             -0.052845836544
  CCSD correlation energy              -0.317389143468

  Triples (T) contribution             -0.005457439331
  Total correlation energy             -0.322846582799

  CCSD total energy                  -370.302572984122
  CCSD[T] energy                     -370.308147366680
  CCSD-T energy                      -370.307978864021
 !CCSD(T) total energy               -370.308030423453

 Timing summary (sec):

 STEP                 CPU(USER)    SYS     CPU(TOT)    WALL
 Transformation          0.07      0.01      0.08      0.14
 CCSD iterations         2.32      0.08      2.40      0.93
 Triples                 0.47      0.03      0.50      0.51

 Program statistics:

 Available memory in ccsd:               805306101
 Min. memory needed in ccsd:                188795
 Max. memory used in ccsd:                  229471
 Max. memory used in cckext:                302175 ( 8 integral passes)



 **********************************************************************************************************************************
 DATASETS  * FILE   NREC   LENGTH (MB)   RECORD NAMES
              1      20       37.30       500      610      700      900      950      970     1000      129      960     1100   
                                          VAR    BASINP    GEOM    SYMINP    ZMAT    AOBASIS   BASIS     P2S    ABASIS      S 
                                         1400     1410     1200     1210     1080     1600     1650     1300     1700     1380   
                                           T        V       H0       H01     AOSYM     SMH    MOLCAS    ERIS     OPER     JKOP   

              2       4        0.58       700     1000      520     2100   
                                         GEOM     BASIS   MCVARS     RHF  

 PROGRAMS   *        TOTAL   CCSD(T)    HF-SCF       INT
 CPU TIMES  *         2.54      1.38      0.18      0.85
 REAL TIME  *         4.43 SEC
 DISK USED  *        50.43 MB
 **********************************************************************************************************************************

 Dump information in style XML to xml output                                                                      

 Orbitals will not be exported.

 **********************************************************************************************************************************

 CCSD(T)/cc-pVDZ energy=   -370.308030423453

         CCSD(T)          HF-SCF
   -370.30803042   -369.98518384
 **********************************************************************************************************************************
 Molpro calculation terminated
