
 Working directory              : /home/jovyan/scratch/molpro.uZGSFhIwqJ/
 Global scratch directory       : /home/jovyan/scratch/molpro.uZGSFhIwqJ/
 Wavefunction directory         : /home/jovyan/wfu/
 Main file repository           : /home/jovyan/scratch/molpro.uZGSFhIwqJ/

 id        : cardiff

 Nodes                nprocs
 jupyter-c-2efrancisan    1
 GA implementation: MPI file
 GA implementation (serial work in mppx): MPI file

 Using customized tuning parameters: mindgm=1; mindgv=20; mindgc=4; mindgr=1; noblas=0; minvec=7
 default implementation of scratch files=df  


 Variables initialized (1031), CPU time= 0.01 sec
 
 
 
 geometry={
 20
  C     0.0000000   -0.7842119    0.4870298
  C     0.0000000    0.7842119    0.4870298
  C    -1.2407250    1.4167465   -0.1340541
  H    -0.0000000    1.0914546    1.5332924
  C     1.2407250    1.4167465   -0.1340541
  C     1.2407250   -1.4167465   -0.1340541
  C    -1.2407250   -1.4167465   -0.1340541
  H    -0.0000000   -1.0914546    1.5332924
  H     1.1999321   -2.4968260   -0.0082871
  H     1.3107097   -1.2059374   -1.1999296
  H     2.1582055   -1.0720738    0.3327865
  H    -1.1999321   -2.4968260   -0.0082871
  H    -2.1582055   -1.0720738    0.3327865
  H    -1.3107097   -1.2059374   -1.1999296
  H     1.1999321    2.4968260   -0.0082871
  H     2.1582055    1.0720738    0.3327865
  H     1.3107097    1.2059374   -1.1999296
  H    -1.1999321    2.4968260   -0.0082871
  H    -1.3107097    1.2059374   -1.1999296
  H    -2.1582055    1.0720738    0.3327865
 }
 basis=cc-pVTZ
 angstrom
 
 
 hf
 
 
 
 {put,xml;noorbitals,nobasis}
 Commands initialized (841), CPU time= 0.01 sec, 704 directives.
 Default parameters read. Elapsed time= 0.17 sec

 Checking input...
 Passed
1


                                         ***  PROGRAM SYSTEM MOLPRO  ***
                                       Copyright, TTI GmbH Stuttgart, 2015
                                    Version 2023.1 linked Mon Jun  5 13:27:10 2023


 **********************************************************************************************************************************
 LABEL *                                                                                                                                                                 
  (16 PROC) 64 bit serial version                                                        DATE: 03-Aug-23          TIME: 10:15:22  
 **********************************************************************************************************************************

 SHA1:             9738a14712571edd23541b6d7c4f3a3d766f8287
 **********************************************************************************************************************************

 Memory per process:       805 MW
 Total memory per node:   1074 MW
 Total GA space:           268 MW

 GA preallocation disabled
 GA check enabled

 Geometry recognized as XYZ


 Variable memory set to 805.3 MW

 SETTING BASIS          =    CC-PVTZ


 Recomputing integrals since basis changed


 Using spherical harmonics

 Library entry C      S cc-pVTZ              selected for orbital group  1
 Library entry C      P cc-pVTZ              selected for orbital group  1
 Library entry C      D cc-pVTZ              selected for orbital group  1
 Library entry C      F cc-pVTZ              selected for orbital group  1
 Library entry H      S cc-pVTZ              selected for orbital group  2
 Library entry H      P cc-pVTZ              selected for orbital group  2
 Library entry H      D cc-pVTZ              selected for orbital group  2


 PROGRAM * SEWARD (Integral evaluation for generally contracted gaussian basis sets)     Author: Roland Lindh, 1990

 Geometry written to block  1 of record 700


 Point group  C2v 



 ATOMIC COORDINATES

 NR  ATOM    CHARGE       X              Y              Z

   1  C       6.00    0.000000000   -1.481945715    0.920352937
   2  C       6.00    0.000000000    1.481945715    0.920352937
   3  C       6.00   -2.344630446    2.677262873   -0.253325535
   4  C       6.00    2.344630446    2.677262873   -0.253325535
   5  C       6.00    2.344630446   -2.677262873   -0.253325535
   6  C       6.00   -2.344630446   -2.677262873   -0.253325535
   7  H       1.00    0.000000000    2.062550271    2.897502705
   8  H       1.00    0.000000000   -2.062550271    2.897502705
   9  H       1.00    2.267543037   -4.718317321   -0.015660349
  10  H       1.00   -2.267543037   -4.718317321   -0.015660349
  11  H       1.00    2.267543037    4.718317321   -0.015660349
  12  H       1.00   -2.267543037    4.718317321   -0.015660349
  13  H       1.00    2.476882362   -2.278891409   -2.267538313
  14  H       1.00   -2.476882362   -2.278891409   -2.267538313
  15  H       1.00    2.476882362    2.278891409   -2.267538313
  16  H       1.00   -2.476882362    2.278891409   -2.267538313
  17  H       1.00    4.078417316   -2.025925867    0.628875343
  18  H       1.00   -4.078417316   -2.025925867    0.628875343
  19  H       1.00    4.078417316    2.025925867    0.628875343
  20  H       1.00   -4.078417316    2.025925867    0.628875343

 Bond lengths in Bohr (Angstrom)

 1-2  2.963891429  1-5  2.881596119  1-6  2.881596119  1-8  2.060636518  2-3  2.881596119
     ( 1.568423800)     ( 1.524874997)     ( 1.524874997)     ( 1.090441885)     ( 1.524874997)

  2- 4  2.881596119   2- 7  2.060636518   3-12  2.056290463   3-16  2.057484753   3-20  2.051471470
       ( 1.524874997)       ( 1.090441885)       ( 1.088142052)       ( 1.088774043)       ( 1.085591951)

  4-11  2.056290463   4-15  2.057484753   4-19  2.051471470   5- 9  2.056290463   5-13  2.057484753
       ( 1.088142052)       ( 1.088774043)       ( 1.085591951)       ( 1.088142052)       ( 1.088774043)

  5-17  2.051471470   6-10  2.056290463   6-14  2.057484753   6-18  2.051471470
       ( 1.085591951)       ( 1.088142052)       ( 1.088774043)       ( 1.085591951)

 Bond angles

  1-2-3  114.50740151   1-2-4  114.50740151   1-2-7  106.36526387   1-5-9  109.52138609

  1- 5-13  111.76003051   1- 5-17  112.38336217   1- 6-10  109.52138609   1- 6-14  111.76003051

  1- 6-18  112.38336217   2- 1- 5  114.50740151   2- 1- 6  114.50740151   2- 1- 8  106.36526387

  2- 3-12  109.52138609   2- 3-16  111.76003051   2- 3-20  112.38336217   2- 4-11  109.52138609

  2- 4-15  111.76003051   2- 4-19  112.38336217   3- 2- 4  108.90954159   3- 2- 7  105.89782290

  4-2-7  105.89782290   5-1-6  108.90954159   5-1-8  105.89782290   6-1-8  105.89782290

  9- 5-13  107.92335393   9- 5-17  107.28501390  10- 6-14  107.92335393  10- 6-18  107.28501390

 11- 4-15  107.92335393  11- 4-19  107.28501390  12- 3-16  107.92335393  12- 3-20  107.28501390

 13- 5-17  107.76962173  14- 6-18  107.76962173  15- 4-19  107.76962173  16- 3-20  107.76962173

 NUCLEAR CHARGE:                   50
 NUMBER OF PRIMITIVE AOS:         520
 NUMBER OF SYMMETRY AOS:          476
 NUMBER OF CONTRACTIONS:          376   (  102A1  +   86B1  +  102B2  +   86A2  )
 NUMBER OF INNER CORE ORBITALS:     0   (    0A1  +    0B1  +    0B2  +    0A2  )
 NUMBER OF OUTER CORE ORBITALS:     6   (    2A1  +    1B1  +    2B2  +    1A2  )
 NUMBER OF VALENCE ORBITALS:       38   (   11A1  +    8B1  +   11B2  +    8A2  )


 NUCLEAR REPULSION ENERGY  264.57914302

 Eigenvalues of metric

         1 0.855E-03 0.115E-02 0.134E-02 0.163E-02 0.176E-02 0.291E-02 0.444E-02 0.801E-02
         2 0.977E-03 0.140E-02 0.155E-02 0.174E-02 0.293E-02 0.729E-02 0.923E-02 0.100E-01
         3 0.251E-03 0.678E-03 0.876E-03 0.105E-02 0.121E-02 0.144E-02 0.205E-02 0.248E-02
         4 0.360E-03 0.982E-03 0.109E-02 0.130E-02 0.169E-02 0.351E-02 0.424E-02 0.646E-02


 Contracted 2-electron integrals neglected if value below      1.0D-11
 AO integral compression algorithm  1   Integral accuracy      1.0D-11

     3103.785 MB (compressed) written to integral file ( 51.5%)


 NUMBER OF SORTED TWO-ELECTRON INTEGRALS:  633026982.     BUFFER LENGTH:  32768
 NUMBER OF SEGMENTS:  20  SEGMENT LENGTH:   31997916      RECORD LENGTH: 524288

 Memory used in sort:      32.55 MW

 SORT1 READ   754006312. AND WROTE   627022208. INTEGRALS IN   1804 RECORDS. CPU TIME:    20.67 SEC, REAL TIME:    26.73 SEC
 SORT2 READ   627022208. AND WROTE   633026982. INTEGRALS IN  11840 RECORDS. CPU TIME:    13.18 SEC, REAL TIME:    16.45 SEC

 FILE SIZES:   FILE 1:  3137.1 MBYTE,  FILE 4:  7566.6 MBYTE,   TOTAL:  10703.7 MBYTE

 OPERATOR DM      FOR CENTER  0  COORDINATES:    0.000000    0.000000    0.000000


 **********************************************************************************************************************************
 DATASETS  * FILE   NREC   LENGTH (MB)   RECORD NAMES
              1      19     2607.61       500      610      700      900      950      970     1000      129      960     1100   
                                          VAR    BASINP    GEOM    SYMINP    ZMAT    AOBASIS   BASIS     P2S    ABASIS      S 
                                         1400     1410     1200     1210     1080     1600     1650     1300     1700   
                                           T        V       H0       H01     AOSYM     SMH    MOLCAS    ERIS     OPER   

 PROGRAMS   *        TOTAL       INT
 CPU TIMES  *       204.92    204.79
 REAL TIME  *       224.85 SEC
 DISK USED  *         9.97 GB
 **********************************************************************************************************************************


 Program * Restricted Hartree-Fock

 Orbital guess generated from atomic densities. Full valence occupancy:   13   9  13   9

 Initial occupancy:   8   5   7   5

 NELEC=   50   SYM=1   MS2= 0   THRE=1.0D-08   THRD=3.2D-06   THRG=3.2D-06  HFMA2=F  DIIS_START=2   DIIS_MAX=10   DIIS_INCORE=F

 Level shifts:    0.00 (CLOSED)    0.00 (OPEN)    0.30 (GAP_MIN)

 ITER           ETOT              DE          GRAD        DDIFF     DIIS  NEXP   TIME(IT)  TIME(TOT)  DIAG
   1     -235.33999386    -235.33999386     0.00D+00     0.73D-01     0     0       2.29      4.48    start
   2     -235.42068325      -0.08068938     0.51D-02     0.72D-02     1     0       2.31      6.79    diag
   3     -235.43142760      -0.01074436     0.21D-02     0.22D-02     2     0       2.34      9.13    diag
   4     -235.43313052      -0.00170292     0.67D-03     0.82D-03     3     0       2.29     11.42    diag
   5     -235.43317821      -0.00004769     0.12D-03     0.17D-03     4     0       2.34     13.76    diag
   6     -235.43318278      -0.00000457     0.37D-04     0.66D-04     5     0       2.36     16.12    diag
   7     -235.43318293      -0.00000014     0.59D-05     0.13D-04     6     0       2.38     18.50    diag
   8     -235.43318294      -0.00000001     0.15D-05     0.38D-05     7     0       2.33     20.83    fixocc
   9     -235.43318294      -0.00000000     0.27D-06     0.72D-06     8     0       2.33     23.16    diag
  10     -235.43318294      -0.00000000     0.54D-07     0.12D-06     0     0       2.34     25.50    diag/orth

 Final occupancy:   8   5   7   5

 !RHF STATE 1.1 Energy               -235.433182938622
  RHF One-electron energy            -840.769457705272
  RHF Two-electron energy             340.757131744559
  RHF Kinetic energy                  235.327570075095
  RHF Nuclear energy                  264.579143022091
  RHF Virial quotient                  -1.000448790864

 !RHF STATE 1.1 Dipole moment           0.00000000     0.00000000     0.08620620
 Dipole moment /Debye                   0.00000000     0.00000000     0.21911430

 Orbital energies:

           1.1          2.1          3.1          4.1          5.1          6.1          7.1          8.1          9.1         10.1
    -11.219307   -11.203064    -1.099471    -0.839223    -0.651619    -0.621470    -0.501447    -0.436615     0.135346     0.165440

           1.2          2.2          3.2          4.2          5.2          6.2          7.2
    -11.203086    -0.941756    -0.577174    -0.545295    -0.498013     0.170662     0.227072

           1.3          2.3          3.3          4.3          5.3          6.3          7.3          8.3          9.3
    -11.218789   -11.203070    -1.014362    -0.727254    -0.578282    -0.538610    -0.429769     0.170151     0.224039

           1.4          2.4          3.4          4.4          5.4          6.4          7.4
    -11.203095    -0.907027    -0.524137    -0.502593    -0.443076     0.215184     0.299308


 HOMO      7.3    -0.429769 =     -11.6946eV
 LUMO      9.1     0.135346 =       3.6830eV
 LUMO-HOMO         0.565115 =      15.3776eV

 Orbitals saved in record  2100.2


 **********************************************************************************************************************************
 DATASETS  * FILE   NREC   LENGTH (MB)   RECORD NAMES
              1      19     2607.61       500      610      700      900      950      970     1000      129      960     1100   
                                          VAR    BASINP    GEOM    SYMINP    ZMAT    AOBASIS   BASIS     P2S    ABASIS      S 
                                         1400     1410     1200     1210     1080     1600     1650     1300     1700   
                                           T        V       H0       H01     AOSYM     SMH    MOLCAS    ERIS     OPER   

              2       4        1.31       700     1000      520     2100   
                                         GEOM     BASIS   MCVARS     RHF  

 PROGRAMS   *        TOTAL    HF-SCF       INT
 CPU TIMES  *       230.43     25.51    204.79
 REAL TIME  *       254.72 SEC
 DISK USED  *         9.97 GB
 **********************************************************************************************************************************

 Dump information in style XML to xml output                                                                      

 Orbitals will not be exported.

 **********************************************************************************************************************************

 HF/cc-pVTZ energy=   -235.433182938622

          HF-SCF
   -235.43318294
 **********************************************************************************************************************************
 Molpro calculation terminated
