
 Working directory              : /home/jovyan/scratch/molpro.x66hrPmOXF/
 Global scratch directory       : /home/jovyan/scratch/molpro.x66hrPmOXF/
 Wavefunction directory         : /home/jovyan/wfu/
 Main file repository           : /home/jovyan/scratch/molpro.x66hrPmOXF/

 id        : cardiff

 Nodes                nprocs
 jupyter-c-2efrancisan    1
 GA implementation: MPI file
 GA implementation (serial work in mppx): MPI file

 Using customized tuning parameters: mindgm=1; mindgv=20; mindgc=4; mindgr=1; noblas=0; minvec=7
 default implementation of scratch files=df  


 Variables initialized (1031), CPU time= 0.01 sec
 
 
 
 geometry={
 5
  C 0.000000 0.421035 0.000000
  H -0.383063 1.448042 0.000000
  H -0.659556 -1.343644 0.000000
  O 1.158518 0.117088 0.000000
  O -1.028191 -0.445914 0.000000
 }
 basis=cc-pVTZ
 angstrom
 
 
 hf; papt;mp4
 
 
 
 {put,xml;noorbitals,nobasis}
 Commands initialized (841), CPU time= 0.01 sec, 704 directives.
 Default parameters read. Elapsed time= 0.10 sec

 Checking input...
 Passed
1


                                         ***  PROGRAM SYSTEM MOLPRO  ***
                                       Copyright, TTI GmbH Stuttgart, 2015
                                    Version 2023.1 linked Mon Jun  5 13:27:10 2023


 **********************************************************************************************************************************
 LABEL *                                                                                                                                                                 
  (16 PROC) 64 bit serial version                                                        DATE: 02-Aug-23          TIME: 15:47:09  
 **********************************************************************************************************************************

 SHA1:             9738a14712571edd23541b6d7c4f3a3d766f8287
 **********************************************************************************************************************************

 Memory per process:       805 MW
 Total memory per node:   1074 MW
 Total GA space:           268 MW

 GA preallocation disabled
 GA check enabled

 Geometry recognized as XYZ


 Variable memory set to 805.3 MW

 SETTING BASIS          =    CC-PVTZ


 Recomputing integrals since basis changed


 Using spherical harmonics

 Library entry C      S cc-pVTZ              selected for orbital group  1
 Library entry C      P cc-pVTZ              selected for orbital group  1
 Library entry C      D cc-pVTZ              selected for orbital group  1
 Library entry C      F cc-pVTZ              selected for orbital group  1
 Library entry H      S cc-pVTZ              selected for orbital group  2
 Library entry H      P cc-pVTZ              selected for orbital group  2
 Library entry H      D cc-pVTZ              selected for orbital group  2
 Library entry O      S cc-pVTZ              selected for orbital group  3
 Library entry O      P cc-pVTZ              selected for orbital group  3
 Library entry O      D cc-pVTZ              selected for orbital group  3
 Library entry O      F cc-pVTZ              selected for orbital group  3


 PROGRAM * SEWARD (Integral evaluation for generally contracted gaussian basis sets)     Author: Roland Lindh, 1990

 Geometry written to block  1 of record 700


 Point group  Cs  



 ATOMIC COORDINATES

 NR  ATOM    CHARGE       X              Y              Z

   1  C       6.00    0.000000000    0.795640839    0.000000000
   2  H       1.00   -0.723884158    2.736402797    0.000000000
   3  H       1.00   -1.246380204   -2.539119169    0.000000000
   4  O       8.00    2.189281730    0.221264252    0.000000000
   5  O       8.00   -1.942999394   -0.842655335    0.000000000

 Bond lengths in Bohr (Angstrom)

 1-2  2.071367967  1-4  2.263374242  1-5  2.541507623  3-5  1.833921437
     ( 1.096120723)     ( 1.197726068)     ( 1.344907915)     ( 0.970469431)

 Bond angles

  1-5-3  107.81235042   2-1-4  125.15571256   2-1-5  109.68188590   4-1-5  125.16240154

 NUCLEAR CHARGE:                   24
 NUMBER OF PRIMITIVE AOS:         175
 NUMBER OF SYMMETRY AOS:          158
 NUMBER OF CONTRACTIONS:          118   (   80A'  +   38A"  )
 NUMBER OF INNER CORE ORBITALS:     0   (    0A'  +    0A"  )
 NUMBER OF OUTER CORE ORBITALS:     3   (    3A'  +    0A"  )
 NUMBER OF VALENCE ORBITALS:       14   (   11A'  +    3A"  )


 NUCLEAR REPULSION ENERGY   70.23492038

 Eigenvalues of metric

         1 0.154E-02 0.204E-02 0.257E-02 0.389E-02 0.449E-02 0.579E-02 0.696E-02 0.870E-02
         2 0.286E-01 0.386E-01 0.434E-01 0.764E-01 0.876E-01 0.998E-01 0.127E+00 0.176E+00


 Contracted 2-electron integrals neglected if value below      1.0D-11
 AO integral compression algorithm  1   Integral accuracy      1.0D-11

     62.915 MB (compressed) written to integral file ( 52.5%)


 NUMBER OF SORTED TWO-ELECTRON INTEGRALS:   12727851.     BUFFER LENGTH:  32768
 NUMBER OF SEGMENTS:   1  SEGMENT LENGTH:   12727851      RECORD LENGTH: 524288

 Memory used in sort:      13.28 MW

 SORT1 READ    14967191. AND WROTE    12535082. INTEGRALS IN     36 RECORDS. CPU TIME:     0.18 SEC, REAL TIME:     0.49 SEC
 SORT2 READ    12535082. AND WROTE    12727851. INTEGRALS IN    240 RECORDS. CPU TIME:     0.36 SEC, REAL TIME:     0.45 SEC

 FILE SIZES:   FILE 1:    93.4 MBYTE,  FILE 4:   151.1 MBYTE,   TOTAL:    244.4 MBYTE

 OPERATOR DM      FOR CENTER  0  COORDINATES:    0.000000    0.000000    0.000000


 **********************************************************************************************************************************
 DATASETS  * FILE   NREC   LENGTH (MB)   RECORD NAMES
              1      19       80.55       500      610      700      900      950      970     1000      129      960     1100   
                                          VAR    BASINP    GEOM    SYMINP    ZMAT    AOBASIS   BASIS     P2S    ABASIS      S 
                                         1400     1410     1200     1210     1080     1600     1650     1300     1700   
                                           T        V       H0       H01     AOSYM     SMH    MOLCAS    ERIS     OPER   

 PROGRAMS   *        TOTAL       INT
 CPU TIMES  *         2.99      2.84
 REAL TIME  *         5.03 SEC
 DISK USED  *       233.52 MB
 **********************************************************************************************************************************


 Program * Restricted Hartree-Fock

 Orbital guess generated from atomic densities. Full valence occupancy:   14   3

 Initial occupancy:  10   2

 NELEC=   24   SYM=1   MS2= 0   THRE=1.0D-08   THRD=3.2D-06   THRG=3.2D-06  HFMA2=F  DIIS_START=2   DIIS_MAX=10   DIIS_INCORE=F

 Level shifts:    0.00 (CLOSED)    0.00 (OPEN)    0.30 (GAP_MIN)

 ITER           ETOT              DE          GRAD        DDIFF     DIIS  NEXP   TIME(IT)  TIME(TOT)  DIAG
   1     -188.75994335    -188.75994335     0.00D+00     0.10D+00     0     0       0.10      0.20    start
   2     -188.80656579      -0.04662244     0.11D-01     0.17D-01     1     0       0.09      0.29    diag
   3     -188.84003116      -0.03346537     0.82D-02     0.69D-02     2     0       0.10      0.39    diag
   4     -188.84093874      -0.00090758     0.97D-03     0.12D-02     3     0       0.10      0.49    diag
   5     -188.84113480      -0.00019605     0.46D-03     0.54D-03     4     0       0.11      0.60    diag
   6     -188.84117256      -0.00003776     0.14D-03     0.23D-03     5     0       0.09      0.69    diag
   7     -188.84118082      -0.00000826     0.59D-04     0.13D-03     6     0       0.10      0.79    diag
   8     -188.84118165      -0.00000083     0.20D-04     0.46D-04     7     0       0.10      0.89    fixocc
   9     -188.84118172      -0.00000006     0.60D-05     0.13D-04     8     0       0.10      0.99    diag
  10     -188.84118172      -0.00000001     0.16D-05     0.39D-05     9     0       0.09      1.08    diag/orth
  11     -188.84118172      -0.00000000     0.39D-06     0.85D-06     9     0       0.10      1.18    diag
  12     -188.84118172      -0.00000000     0.66D-07     0.10D-06     0     0       0.10      1.28    diag

 Final occupancy:  10   2

 !RHF STATE 1.1 Energy               -188.841181722716
  RHF One-electron energy            -398.222652714300
  RHF Two-electron energy             139.146550614469
  RHF Kinetic energy                  188.548444192676
  RHF Nuclear energy                   70.234920377114
  RHF Virial quotient                  -1.001552585232

 !RHF STATE 1.1 Dipole moment          -0.66377798    -0.05983905     0.00000000
 Dipole moment /Debye                  -1.68715533    -0.15209569     0.00000000

 Orbital energies:

           1.1          2.1          3.1          4.1          5.1          6.1          7.1          8.1          9.1         10.1
    -20.623726   -20.562824   -11.393326    -1.474478    -1.376235    -0.894222    -0.723358    -0.710847    -0.602383    -0.471928

          11.1         12.1
      0.147434     0.169740

           1.2          2.2          3.2          4.2
     -0.635984    -0.495464     0.161829     0.427015


 HOMO     10.1    -0.471928 =     -12.8418eV
 LUMO     11.1     0.147434 =       4.0119eV
 LUMO-HOMO         0.619362 =      16.8537eV

 Orbitals saved in record  2100.2


 **********************************************************************************************************************************
 DATASETS  * FILE   NREC   LENGTH (MB)   RECORD NAMES
              1      19       80.55       500      610      700      900      950      970     1000      129      960     1100   
                                          VAR    BASINP    GEOM    SYMINP    ZMAT    AOBASIS   BASIS     P2S    ABASIS      S 
                                         1400     1410     1200     1210     1080     1600     1650     1300     1700   
                                           T        V       H0       H01     AOSYM     SMH    MOLCAS    ERIS     OPER   

              2       4        0.58       700     1000      520     2100   
                                         GEOM     BASIS   MCVARS     RHF  

 PROGRAMS   *        TOTAL    HF-SCF       INT
 CPU TIMES  *         4.27      1.28      2.84
 REAL TIME  *         6.72 SEC
 DISK USED  *       233.52 MB
 **********************************************************************************************************************************


 PROGRAM * PAPT (Closed-shell)     Authors: C. Hampel, H.-J. Werner, 1991, P.J. Knowles, 2021


 Convergence thresholds:  THRVAR = 1.00D-08  THRDEN = 1.00D-06

 Number of core orbitals:           3 (   3   0 )
 Number of closed-shell orbitals:   9 (   7   2 )
 Number of external orbitals:     106 (  70  36 )

 Molecular orbitals read from record     2100.2  Type=RHF/CANONICAL  

 Number of N-1 electron functions:               9
 Number of N-2 electron functions:              45
 Number of singly external CSFs:               562
 Number of doubly external CSFs:            235231
 Total number of CSFs:                      235794

 Length of J-op  integral file:               0.00 MB
 Length of K-op  integral file:               0.60 MB

 Integral transformation finished. Total CPU:   0.19 sec, npass=  1  Memory used:   0.47 MW

 Reference energy:                   -188.84118172

                        CORR.ENERGY   TOTAL ENERGY   ENERGY CHANGE
 MP2:                   -0.62980711  -189.47098883    -0.62980711

 SCS-MP2 correlation energy:           -0.61587260   (PS=  1.200000  PT=  0.333333)
 SCS-MP2 total energy:               -189.45705432
 Iteration:   1     0.2330D+00
 Iteration:   2     0.3292D+00
 Iteration:   3     0.7728D-01
 Iteration:   4     0.5996D-01
 Iteration:   5     0.5799D-01
 Iteration:   6     0.1762D-01
 Iteration:   7     0.7032D-01
 Iteration:   8     0.6763D-02
 Iteration:   9     0.1113D-01
 Iteration:  10     0.3225D-02
 Iteration:  11     0.1764D-02
 Iteration:  12     0.2681D-02
 Iteration:  13     0.5209D-03
 Iteration:  14     0.1176D-02
 Iteration:  15     0.2525D-03
 Iteration:  16     0.1959D-03
 Iteration:  17     0.1542D-03
 Iteration:  18     0.4582D-04
 PAPT operator written to  7000.1
 PAPT orbitals and eigenvalues written to  7000.2

 MP3(D):                -0.62787337  -189.46905509     0.00193374



 RESULTS
 =======

  Reference energy                   -188.841181722716
  MP3 singlet pair energy              -0.410827954522
  MP3 triplet pair energy              -0.217045416633
  MP3 correlation energy               -0.627873371155

 !MP3 total energy                   -189.469055093872

 Timing summary (sec):

 STEP                 CPU(USER)    SYS     CPU(TOT)    WALL
 Transformation          0.21      0.03      0.24      0.47
 CCSD iterations         5.80      0.04      5.84      1.40

 Program statistics:

 Available memory in ccsd:               805306034
 Min. memory needed in ccsd:                707213
 Max. memory used in ccsd:                  903343
 Max. memory used in cckext:                982165 ( 1 integral passes)



 **********************************************************************************************************************************
 DATASETS  * FILE   NREC   LENGTH (MB)   RECORD NAMES
              1      21       84.48       500      610      700      900      950      970     1000      129      960     1100   
                                          VAR    BASINP    GEOM    SYMINP    ZMAT    AOBASIS   BASIS     P2S    ABASIS      S 
                                         1400     1410     1200     1210     1080     1600     1650     1300     1700     1380   
                                           T        V       H0       H01     AOSYM     SMH    MOLCAS    ERIS     OPER     JKOP   
                                         7000   
                                        PAPT AO    

              2       5        0.86       700     1000      520     2100     7000   
                                         GEOM     BASIS   MCVARS     RHF     PAPT   

 PROGRAMS   *        TOTAL      PAPT    HF-SCF       INT
 CPU TIMES  *         5.69      1.41      1.28      2.84
 REAL TIME  *         8.64 SEC
 DISK USED  *       233.52 MB
 **********************************************************************************************************************************


 PROGRAM * MP4 (Closed-shell)     Authors: C. Hampel, H.-J. Werner, 1991, M. Deegan, P.J. Knowles, 1992


 Convergence thresholds:  THRVAR = 1.00D-08  THRDEN = 1.00D-06

 MP4(T)     terms to be evaluated (factor= 0.000)


 Number of core orbitals:           3 (   3   0 )
 Number of closed-shell orbitals:   9 (   7   2 )
 Number of external orbitals:     106 (  70  36 )

 Molecular orbitals read from record     7000.2  Type=PAPT/CANONICAL (state 1.1)

 Number of N-1 electron functions:               9
 Number of N-2 electron functions:              45
 Number of singly external CSFs:               562
 Number of doubly external CSFs:            235231
 Total number of CSFs:                      235794

 Length of J-op  integral file:               0.00 MB
 Length of K-op  integral file:               0.60 MB

 Memory could be reduced to 7.54 Mwords without degradation in triples

 Integral transformation finished. Total CPU:   0.47 sec, npass=  1  Memory used:   2.55 MW
 Orbital energies read from record       7000.2  Type=PAPT/CANONICAL (state 1.1)

 Reference energy:                   -188.84118172

                        CORR.ENERGY   TOTAL ENERGY   ENERGY CHANGE
 MP2:                   -0.63290409  -189.47408582    -0.63290409

 SCS-MP2 correlation energy:           -0.62151365   (PS=  1.200000  PT=  0.333333)
 SCS-MP2 total energy:               -189.46269537

 MP3(D):                -0.63305775  -189.47423948    -0.00015366
 MP4(DQ):               -0.62790333  -189.46908505     0.00515442
 MP4(SDQ):              -0.63451336  -189.47569508    -0.00661003

 Norm of t1 vector:      0.06925091      S-energy:    -0.00661003      T1 diagnostic:  0.01154182

 Largest off-diagonal element in interal  block of Fock matrix:  0.13D+00
 Largest off-diagonal element in external block of Fock matrix:  0.40D+00


 Total CPU time for triples:      6.73 sec


 RESULTS
 =======

  Reference energy                   -188.841181722716
  MP4(SDQ) singlet pair energy         -0.409195733430
  MP4(SDQ) triplet pair energy         -0.218707596610
  MP4(SDQ) correlation energy          -0.634513355872

  Triples contribution                 -0.027780546621
  Total correlation energy             -0.662293902494

  MP4(SDQ) total energy              -189.475695078589
 !MP4(SDTQ) total energy             -189.503475625210

 Timing summary (sec):

 STEP                 CPU(USER)    SYS     CPU(TOT)    WALL
 Transformation          0.58      0.09      0.67      1.09
 CCSD iterations         6.76      0.03      6.79      0.75
 Triples                 6.73      0.35      7.08      7.29

 Program statistics:

 Available memory in ccsd:               805306034
 Min. memory needed in ccsd:                707213
 Max. memory used in ccsd:                  903343
 Max. memory used in cckext:                982165 ( 1 integral passes)



 **********************************************************************************************************************************
 DATASETS  * FILE   NREC   LENGTH (MB)   RECORD NAMES
              1      22      105.53       500      610      700      900      950      970     1000      129      960     1100   
                                          VAR    BASINP    GEOM    SYMINP    ZMAT    AOBASIS   BASIS     P2S    ABASIS      S 
                                         1400     1410     1200     1210     1080     1600     1650     1300     1700     1380   
                                           T        V       H0       H01     AOSYM     SMH    MOLCAS    ERIS     OPER     JKOP   
                                         7000     1380(1)
                                        PAPT AO   JKOP   

              2       5        0.86       700     1000      520     2100     7000   
                                         GEOM     BASIS   MCVARS     RHF     PAPT   

 PROGRAMS   *        TOTAL       MP4      PAPT    HF-SCF       INT
 CPU TIMES  *        13.75      8.06      1.41      1.28      2.84
 REAL TIME  *        17.89 SEC
 DISK USED  *       233.52 MB
 **********************************************************************************************************************************

 Dump information in style XML to xml output                                                                      

 Orbitals will not be exported.

 **********************************************************************************************************************************

 MP4/cc-pVTZ energy=   -189.503475625210

             MP4            PAPT          HF-SCF
   -189.50347563   -189.46905509   -188.84118172
 **********************************************************************************************************************************
 Molpro calculation terminated
