
 Working directory              : /home/jovyan/scratch/molpro.NQ9bhS25La/
 Global scratch directory       : /home/jovyan/scratch/molpro.NQ9bhS25La/
 Wavefunction directory         : /home/jovyan/wfu/
 Main file repository           : /home/jovyan/scratch/molpro.NQ9bhS25La/

 id        : cardiff

 Nodes                nprocs
 jupyter-c-2efrancisan    1
 GA implementation: MPI file
 GA implementation (serial work in mppx): MPI file

 Using customized tuning parameters: mindgm=1; mindgv=20; mindgc=4; mindgr=1; noblas=0; minvec=7
 default implementation of scratch files=df  


 Variables initialized (1031), CPU time= 0.01 sec
 
 
 
 geometry={
            6
     C         -0.66347200      0.00000000      0.00000000
     C          0.66347200      0.00000000      0.00000000
     H         -1.23459900     -0.92251800      0.00000000
     H         -1.23459900      0.92251800      0.00000000
     H          1.23459900      0.92251800      0.00000000
     H          1.23459900     -0.92251800      0.00000000
 }
 basis=cc-pVTZ
 angstrom
 
 
 hf; papt;mp3
 
 
 
 {put,xml;noorbitals,nobasis}
 Commands initialized (841), CPU time= 0.01 sec, 704 directives.
 Default parameters read. Elapsed time= 0.09 sec

 Checking input...
 Passed
1


                                         ***  PROGRAM SYSTEM MOLPRO  ***
                                       Copyright, TTI GmbH Stuttgart, 2015
                                    Version 2023.1 linked Mon Jun  5 13:27:10 2023


 **********************************************************************************************************************************
 LABEL *                                                                                                                                                                 
  (16 PROC) 64 bit serial version                                                        DATE: 03-Aug-23          TIME: 11:00:17  
 **********************************************************************************************************************************

 SHA1:             9738a14712571edd23541b6d7c4f3a3d766f8287
 **********************************************************************************************************************************

 Memory per process:       805 MW
 Total memory per node:   1074 MW
 Total GA space:           268 MW

 GA preallocation disabled
 GA check enabled

 Geometry recognized as XYZ


 Variable memory set to 805.3 MW

 SETTING BASIS          =    CC-PVTZ


 Recomputing integrals since basis changed


 Using spherical harmonics

 Library entry C      S cc-pVTZ              selected for orbital group  1
 Library entry C      P cc-pVTZ              selected for orbital group  1
 Library entry C      D cc-pVTZ              selected for orbital group  1
 Library entry C      F cc-pVTZ              selected for orbital group  1
 Library entry H      S cc-pVTZ              selected for orbital group  2
 Library entry H      P cc-pVTZ              selected for orbital group  2
 Library entry H      D cc-pVTZ              selected for orbital group  2


 PROGRAM * SEWARD (Integral evaluation for generally contracted gaussian basis sets)     Author: Roland Lindh, 1990

 Geometry written to block  1 of record 700


 Point group  D2h 



 ATOMIC COORDINATES

 NR  ATOM    CHARGE       X              Y              Z

   1  C       6.00   -1.253780371    0.000000000    0.000000000
   2  C       6.00    1.253780371    0.000000000    0.000000000
   3  H       1.00   -2.333053984   -1.743306365    0.000000000
   4  H       1.00   -2.333053984    1.743306365    0.000000000
   5  H       1.00    2.333053984    1.743306365    0.000000000
   6  H       1.00    2.333053984   -1.743306365    0.000000000

 Bond lengths in Bohr (Angstrom)

 1-2  2.507560743  1-3  2.050353290  1-4  2.050353290  2-5  2.050353290  2-6  2.050353290
     ( 1.326944000)     ( 1.085000235)     ( 1.085000235)     ( 1.085000235)     ( 1.085000235)

 Bond angles

  1-2-5  121.76147493   1-2-6  121.76147493   2-1-3  121.76147493   2-1-4  121.76147493

  3-1-4  116.47705014   5-2-6  116.47705014

 NUCLEAR CHARGE:                   16
 NUMBER OF PRIMITIVE AOS:         162
 NUMBER OF SYMMETRY AOS:          148
 NUMBER OF CONTRACTIONS:          116   (   23Ag  +   23B3u +   17B2u +   17B1g +   11B1u +   11B2g +    7B3g +    7Au  )
 NUMBER OF INNER CORE ORBITALS:     0   (    0Ag  +    0B3u +    0B2u +    0B1g +    0B1u +    0B2g +    0B3g +    0Au  )
 NUMBER OF OUTER CORE ORBITALS:     2   (    1Ag  +    1B3u +    0B2u +    0B1g +    0B1u +    0B2g +    0B3g +    0Au  )
 NUMBER OF VALENCE ORBITALS:       12   (    3Ag  +    3B3u +    2B2u +    2B1g +    1B1u +    1B2g +    0B3g +    0Au  )


 NUCLEAR REPULSION ENERGY   33.42546957

 Eigenvalues of metric

         1 0.141E-02 0.542E-02 0.147E-01 0.235E-01 0.390E-01 0.527E-01 0.110E+00 0.127E+00
         2 0.794E-03 0.145E-02 0.155E-02 0.693E-02 0.189E-01 0.299E-01 0.617E-01 0.978E-01
         3 0.214E-02 0.977E-02 0.285E-01 0.447E-01 0.100E+00 0.132E+00 0.179E+00 0.334E+00
         4 0.104E-02 0.379E-02 0.844E-02 0.134E-01 0.475E-01 0.639E-01 0.847E-01 0.265E+00
         5 0.340E-01 0.118E+00 0.296E+00 0.385E+00 0.537E+00 0.612E+00 0.124E+01 0.143E+01
         6 0.196E-01 0.607E-01 0.922E-01 0.156E+00 0.282E+00 0.416E+00 0.695E+00 0.122E+01
         7 0.102E+00 0.336E+00 0.505E+00 0.908E+00 0.128E+01 0.175E+01 0.276E+01
         8 0.518E-01 0.209E+00 0.413E+00 0.633E+00 0.110E+01 0.129E+01 0.244E+01


 Contracted 2-electron integrals neglected if value below      1.0D-11
 AO integral compression algorithm  1   Integral accuracy      1.0D-11

     22.282 MB (compressed) written to integral file ( 59.3%)


 NUMBER OF SORTED TWO-ELECTRON INTEGRALS:    3048425.     BUFFER LENGTH:  32768
 NUMBER OF SEGMENTS:   1  SEGMENT LENGTH:    3048425      RECORD LENGTH: 524288

 Memory used in sort:       3.61 MW

 SORT1 READ     4714640. AND WROTE     3048425. INTEGRALS IN      9 RECORDS. CPU TIME:     0.18 SEC, REAL TIME:     0.22 SEC
 SORT2 READ     3048425. AND WROTE     3048425. INTEGRALS IN     85 RECORDS. CPU TIME:     0.16 SEC, REAL TIME:     0.18 SEC

 FILE SIZES:   FILE 1:    52.7 MBYTE,  FILE 4:    37.8 MBYTE,   TOTAL:     90.5 MBYTE

 OPERATOR DM      FOR CENTER  0  COORDINATES:    0.000000    0.000000    0.000000


 **********************************************************************************************************************************
 DATASETS  * FILE   NREC   LENGTH (MB)   RECORD NAMES
              1      19       42.83       500      610      700      900      950      970     1000      129      960     1100   
                                          VAR    BASINP    GEOM    SYMINP    ZMAT    AOBASIS   BASIS     P2S    ABASIS      S 
                                         1400     1410     1200     1210     1080     1600     1650     1300     1700   
                                           T        V       H0       H01     AOSYM     SMH    MOLCAS    ERIS     OPER   

 PROGRAMS   *        TOTAL       INT
 CPU TIMES  *         2.10      1.95
 REAL TIME  *         3.44 SEC
 DISK USED  *        86.73 MB
 **********************************************************************************************************************************


 Program * Restricted Hartree-Fock

 Orbital guess generated from atomic densities. Full valence occupancy:    4   4   2   2   1   1   0   0


 Initial occupancy:   3   2   1   1   1   0   0   0

 NELEC=   16   SYM=1   MS2= 0   THRE=1.0D-08   THRD=3.2D-06   THRG=3.2D-06  HFMA2=F  DIIS_START=2   DIIS_MAX=10   DIIS_INCORE=F

 Level shifts:    0.00 (CLOSED)    0.00 (OPEN)    0.30 (GAP_MIN)

 ITER           ETOT              DE          GRAD        DDIFF     DIIS  NEXP   TIME(IT)  TIME(TOT)  DIAG
   1      -78.04046758     -78.04046758     0.00D+00     0.17D+00     0     0       0.01      0.02    start
   2      -78.06131683      -0.02084924     0.10D-01     0.16D-01     1     0       0.01      0.03    diag
   3      -78.06357419      -0.00225737     0.37D-02     0.41D-02     2     0       0.01      0.04    diag
   4      -78.06387322      -0.00029902     0.10D-02     0.16D-02     3     0       0.01      0.05    diag
   5      -78.06387722      -0.00000401     0.12D-03     0.22D-03     4     0       0.01      0.06    diag
   6      -78.06387733      -0.00000010     0.17D-04     0.40D-04     5     0       0.01      0.07    diag
   7      -78.06387733      -0.00000000     0.33D-05     0.79D-05     6     0       0.01      0.08    diag
   8      -78.06387733      -0.00000000     0.41D-06     0.89D-06     7     0       0.01      0.09    fixocc
   9      -78.06387733      -0.00000000     0.56D-07     0.11D-06     0     0       0.01      0.10    diag

 Final occupancy:   3   2   1   1   1   0   0   0

 !RHF STATE 1.1 Energy                -78.063877329555
  RHF One-electron energy            -170.192490969617
  RHF Two-electron energy              58.703144069373
  RHF Kinetic energy                   77.934119342962
  RHF Nuclear energy                   33.425469570689
  RHF Virial quotient                  -1.001664970204

 !RHF STATE 1.1 Dipole moment           0.00000000     0.00000000     0.00000000
 Dipole moment /Debye                   0.00000000     0.00000000     0.00000000

 Orbital energies:

           1.1          2.1          3.1          4.1          5.1
    -11.229480    -1.033737    -0.588439     0.159126     0.374108

           1.2          2.2          3.2          4.2
    -11.227713    -0.790814     0.186764     0.368692

           1.3          2.3          3.3
     -0.641094     0.190626     0.439565

           1.4          2.4          3.4
     -0.503967     0.241463     0.694841

           1.5          2.5          3.5
     -0.377858     0.445982     0.875995

           1.6          2.6
      0.153091     0.566065

           1.7          2.7
      0.678693     1.218011

           1.8          2.8
      0.829526     1.611722


 HOMO      1.5    -0.377858 =     -10.2820eV
 LUMO      1.6     0.153091 =       4.1658eV
 LUMO-HOMO         0.530948 =      14.4478eV

 Orbitals saved in record  2100.2


 **********************************************************************************************************************************
 DATASETS  * FILE   NREC   LENGTH (MB)   RECORD NAMES
              1      19       42.83       500      610      700      900      950      970     1000      129      960     1100   
                                          VAR    BASINP    GEOM    SYMINP    ZMAT    AOBASIS   BASIS     P2S    ABASIS      S 
                                         1400     1410     1200     1210     1080     1600     1650     1300     1700   
                                           T        V       H0       H01     AOSYM     SMH    MOLCAS    ERIS     OPER   

              2       4        0.51       700     1000      520     2100   
                                         GEOM     BASIS   MCVARS     RHF  

 PROGRAMS   *        TOTAL    HF-SCF       INT
 CPU TIMES  *         2.21      0.10      1.95
 REAL TIME  *         3.62 SEC
 DISK USED  *        86.73 MB
 **********************************************************************************************************************************


 PROGRAM * PAPT (Closed-shell)     Authors: C. Hampel, H.-J. Werner, 1991, P.J. Knowles, 2021


 Convergence thresholds:  THRVAR = 1.00D-08  THRDEN = 1.00D-06

 Number of core orbitals:           2 (   1   1   0   0   0   0   0   0 )
 Number of closed-shell orbitals:   6 (   2   1   1   1   1   0   0   0 )
 Number of external orbitals:     108 (  20  21  16  16  10  11   7   7 )

 Molecular orbitals read from record     2100.2  Type=RHF/CANONICAL  

 Number of N-1 electron functions:               6
 Number of N-2 electron functions:              21
 Number of singly external CSFs:               103
 Number of doubly external CSFs:             28078
 Total number of CSFs:                       28182

 Length of J-op  integral file:               0.00 MB
 Length of K-op  integral file:               0.20 MB

 Integral transformation finished. Total CPU:   0.03 sec, npass=  1  Memory used:   0.11 MW

 Reference energy:                    -78.06387733

                        CORR.ENERGY   TOTAL ENERGY   ENERGY CHANGE
 MP2:                   -0.33532305   -78.39920038    -0.33532305

 SCS-MP2 correlation energy:           -0.34096791   (PS=  1.200000  PT=  0.333333)
 SCS-MP2 total energy:                -78.40484524
 Iteration:   1     0.2898D+00
 Iteration:   2     0.3546D+00
 Iteration:   3     0.1005D+00
 Iteration:   4     0.9742D-01
 Iteration:   5     0.6046D-01
 Iteration:   6     0.1579D-01
 Iteration:   7     0.1392D+00
 Iteration:   8     0.4259D-02
 Iteration:   9     0.2710D-02
 Iteration:  10     0.2871D-02
 Iteration:  11     0.5539D-03
 Iteration:  12     0.2306D-02
 Iteration:  13     0.1411D-03
 Iteration:  14     0.4280D-04
 PAPT operator written to  7000.1
 PAPT orbitals and eigenvalues written to  7000.2

 MP3(D):                -0.35758338   -78.42146071    -0.02226033



 RESULTS
 =======

  Reference energy                    -78.063877329555
  MP3 singlet pair energy              -0.255254709683
  MP3 triplet pair energy              -0.102328670719
  MP3 correlation energy               -0.357583380401

 !MP3 total energy                    -78.421460709956

 Timing summary (sec):

 STEP                 CPU(USER)    SYS     CPU(TOT)    WALL
 Transformation          0.03      0.01      0.04      0.05
 CCSD iterations         2.60      0.01      2.61      0.15

 Program statistics:

 Available memory in ccsd:               805306221
 Min. memory needed in ccsd:                102055
 Max. memory used in ccsd:                  123768
 Max. memory used in cckext:                136925 ( 1 integral passes)



 **********************************************************************************************************************************
 DATASETS  * FILE   NREC   LENGTH (MB)   RECORD NAMES
              1      21       43.32       500      610      700      900      950      970     1000      129      960     1100   
                                          VAR    BASINP    GEOM    SYMINP    ZMAT    AOBASIS   BASIS     P2S    ABASIS      S 
                                         1400     1410     1200     1210     1080     1600     1650     1300     1700     1380   
                                           T        V       H0       H01     AOSYM     SMH    MOLCAS    ERIS     OPER     JKOP   
                                         7000   
                                        PAPT AO    

              2       5        0.65       700     1000      520     2100     7000   
                                         GEOM     BASIS   MCVARS     RHF     PAPT   

 PROGRAMS   *        TOTAL      PAPT    HF-SCF       INT
 CPU TIMES  *         2.39      0.18      0.10      1.95
 REAL TIME  *         3.86 SEC
 DISK USED  *        86.73 MB
 **********************************************************************************************************************************


 PROGRAM * MP3 (Closed-shell)     Authors: C. Hampel, H.-J. Werner, 1991, M. Deegan, P.J. Knowles, 1992


 Convergence thresholds:  THRVAR = 1.00D-08  THRDEN = 1.00D-06

 Number of core orbitals:           2 (   1   1   0   0   0   0   0   0 )
 Number of closed-shell orbitals:   6 (   2   1   1   1   1   0   0   0 )
 Number of external orbitals:     108 (  20  21  16  16  10  11   7   7 )

 Molecular orbitals read from record     7000.2  Type=PAPT/CANONICAL (state 1.1)

 Number of N-1 electron functions:               6
 Number of N-2 electron functions:              21
 Number of singly external CSFs:               103
 Number of doubly external CSFs:             28078
 Total number of CSFs:                       28182

 Length of J-op  integral file:               0.00 MB
 Length of K-op  integral file:               0.20 MB

 Integral transformation finished. Total CPU:   0.03 sec, npass=  1  Memory used:   0.11 MW
 Orbital energies read from record       7000.2  Type=PAPT/CANONICAL (state 1.1)

 Reference energy:                    -78.06387733

                        CORR.ENERGY   TOTAL ENERGY   ENERGY CHANGE
 MP2:                   -0.36256760   -78.42644493    -0.36256760

 SCS-MP2 correlation energy:           -0.37053985   (PS=  1.200000  PT=  0.333333)
 SCS-MP2 total energy:                -78.43441718

 MP3(D):                -0.36282059   -78.42669792    -0.00025299



 RESULTS
 =======

  Reference energy                    -78.063877329555
  MP3 singlet pair energy              -0.261362353017
  MP3 triplet pair energy              -0.101458236717
  MP3 correlation energy               -0.362820589734

 !MP3 total energy                    -78.426697919289

 Timing summary (sec):

 STEP                 CPU(USER)    SYS     CPU(TOT)    WALL
 Transformation          0.04      0.01      0.05      0.06
 CCSD iterations         2.73      0.01      2.74      0.07

 Program statistics:

 Available memory in ccsd:               805306221
 Min. memory needed in ccsd:                102055
 Max. memory used in ccsd:                  123768
 Max. memory used in cckext:                136925 ( 1 integral passes)



 **********************************************************************************************************************************
 DATASETS  * FILE   NREC   LENGTH (MB)   RECORD NAMES
              1      21       43.32       500      610      700      900      950      970     1000      129      960     1100   
                                          VAR    BASINP    GEOM    SYMINP    ZMAT    AOBASIS   BASIS     P2S    ABASIS      S 
                                         1400     1410     1200     1210     1080     1600     1650     1300     1700     1380   
                                           T        V       H0       H01     AOSYM     SMH    MOLCAS    ERIS     OPER     JKOP   
                                         7000   
                                        PAPT AO    

              2       5        0.65       700     1000      520     2100     7000   
                                         GEOM     BASIS   MCVARS     RHF     PAPT   

 PROGRAMS   *        TOTAL       MP3      PAPT    HF-SCF       INT
 CPU TIMES  *         2.53      0.13      0.18      0.10      1.95
 REAL TIME  *         4.03 SEC
 DISK USED  *        86.73 MB
 **********************************************************************************************************************************

 Dump information in style XML to xml output                                                                      

 Orbitals will not be exported.

 **********************************************************************************************************************************

 MP3/cc-pVTZ energy=    -78.426697919289

             MP3            PAPT          HF-SCF
    -78.42669792    -78.42146071    -78.06387733
 **********************************************************************************************************************************
 Molpro calculation terminated
