
 Working directory              : /home/jovyan/scratch/molpro.px573caA51/
 Global scratch directory       : /home/jovyan/scratch/molpro.px573caA51/
 Wavefunction directory         : /home/jovyan/wfu/
 Main file repository           : /home/jovyan/scratch/molpro.px573caA51/

 id        : cardiff

 Nodes                nprocs
 jupyter-c-2efrancisan    1
 GA implementation: MPI file
 GA implementation (serial work in mppx): MPI file

 Using customized tuning parameters: mindgm=1; mindgv=20; mindgc=4; mindgr=1; noblas=0; minvec=7
 default implementation of scratch files=df  


 Variables initialized (1031), CPU time= 0.00 sec
 
 
 
 geometry={
            6
     C         -0.13926933      0.33472048      0.00000000
     O         -0.13926933     -1.08341104      0.00000000
     H         -1.17980283      0.64759124      0.00000000
     H          0.76774408     -1.38539133      0.00000000
     H          0.34529870      0.74324532      0.88954166
     H          0.34529870      0.74324532     -0.88954166
 }
 basis=cc-pVDZ
 angstrom
 
 
 hf; mp4
 
 
 
 {put,xml;noorbitals,nobasis}
 Commands initialized (841), CPU time= 0.01 sec, 704 directives.
 Default parameters read. Elapsed time= 0.09 sec

 Checking input...
 Passed
1


                                         ***  PROGRAM SYSTEM MOLPRO  ***
                                       Copyright, TTI GmbH Stuttgart, 2015
                                    Version 2023.1 linked Mon Jun  5 13:27:10 2023


 **********************************************************************************************************************************
 LABEL *                                                                                                                                                                 
  (16 PROC) 64 bit serial version                                                        DATE: 02-Aug-23          TIME: 15:39:03  
 **********************************************************************************************************************************

 SHA1:             9738a14712571edd23541b6d7c4f3a3d766f8287
 **********************************************************************************************************************************

 Memory per process:       805 MW
 Total memory per node:   1074 MW
 Total GA space:           268 MW

 GA preallocation disabled
 GA check enabled

 Geometry recognized as XYZ


 Variable memory set to 805.3 MW

 SETTING BASIS          =    CC-PVDZ


 Recomputing integrals since basis changed


 Using spherical harmonics

 Library entry C      S cc-pVDZ              selected for orbital group  1
 Library entry C      P cc-pVDZ              selected for orbital group  1
 Library entry C      D cc-pVDZ              selected for orbital group  1
 Library entry O      S cc-pVDZ              selected for orbital group  2
 Library entry O      P cc-pVDZ              selected for orbital group  2
 Library entry O      D cc-pVDZ              selected for orbital group  2
 Library entry H      S cc-pVDZ              selected for orbital group  3
 Library entry H      P cc-pVDZ              selected for orbital group  3


 PROGRAM * SEWARD (Integral evaluation for generally contracted gaussian basis sets)     Author: Roland Lindh, 1990

 Geometry written to block  1 of record 700


 Point group  Cs  



 ATOMIC COORDINATES

 NR  ATOM    CHARGE       X              Y              Z

   1  C       6.00   -0.263180891    0.632530036    0.000000000
   2  O       8.00   -0.263180891   -2.047350146    0.000000000
   3  H       1.00   -2.229504230    1.223770084    0.000000000
   4  H       1.00    1.450826045   -2.618010189    0.000000000
   5  H       1.00    0.652519974    1.404530098    1.680990114
   6  H       1.00    0.652519974    1.404530098   -1.680990114

 Bond lengths in Bohr (Angstrom)

 1-2  2.679880181  1-3  2.053288160  1-5  2.064030023  1-6  2.064030023  2-4  1.806508417
     ( 1.418131520)     ( 1.086553302)     ( 1.092237651)     ( 1.092237651)     ( 0.955963086)

 Bond angles

  1-2-4  108.41462081   2-1-3  106.73514063   2-1-5  111.96410162   2-1-6  111.96410162

  3-1-5  108.49107784   3-1-6  108.49107784   5-1-6  109.06037247

 NUCLEAR CHARGE:                   18
 NUMBER OF PRIMITIVE AOS:          82
 NUMBER OF SYMMETRY AOS:           80
 NUMBER OF CONTRACTIONS:           48   (   33A'  +   15A"  )
 NUMBER OF INNER CORE ORBITALS:     0   (    0A'  +    0A"  )
 NUMBER OF OUTER CORE ORBITALS:     2   (    2A'  +    0A"  )
 NUMBER OF VALENCE ORBITALS:       12   (    9A'  +    3A"  )


 NUCLEAR REPULSION ENERGY   40.39336013

 Eigenvalues of metric

         1 0.961E-02 0.177E-01 0.365E-01 0.377E-01 0.473E-01 0.514E-01 0.739E-01 0.102E+00
         2 0.371E-01 0.471E-01 0.126E+00 0.177E+00 0.317E+00 0.471E+00 0.574E+00 0.914E+00


 Contracted 2-electron integrals neglected if value below      1.0D-11
 AO integral compression algorithm  1   Integral accuracy      1.0D-11

     2.097 MB (compressed) written to integral file ( 63.6%)


 NUMBER OF SORTED TWO-ELECTRON INTEGRALS:     366861.     BUFFER LENGTH:  32768
 NUMBER OF SEGMENTS:   1  SEGMENT LENGTH:     366861      RECORD LENGTH: 524288

 Memory used in sort:       0.92 MW

 SORT1 READ      448236. AND WROTE      342945. INTEGRALS IN      1 RECORDS. CPU TIME:     0.01 SEC, REAL TIME:     0.17 SEC
 SORT2 READ      342945. AND WROTE      366861. INTEGRALS IN      8 RECORDS. CPU TIME:     0.02 SEC, REAL TIME:     0.03 SEC

 FILE SIZES:   FILE 1:    32.2 MBYTE,  FILE 4:     4.3 MBYTE,   TOTAL:     36.5 MBYTE

 OPERATOR DM      FOR CENTER  0  COORDINATES:    0.000000    0.000000    0.000000


 **********************************************************************************************************************************
 DATASETS  * FILE   NREC   LENGTH (MB)   RECORD NAMES
              1      19       30.31       500      610      700      900      950      970     1000      129      960     1100   
                                          VAR    BASINP    GEOM    SYMINP    ZMAT    AOBASIS   BASIS     P2S    ABASIS      S 
                                         1400     1410     1200     1210     1080     1600     1650     1300     1700   
                                           T        V       H0       H01     AOSYM     SMH    MOLCAS    ERIS     OPER   

 PROGRAMS   *        TOTAL       INT
 CPU TIMES  *         0.68      0.55
 REAL TIME  *         2.89 SEC
 DISK USED  *        35.21 MB
 **********************************************************************************************************************************


 Program * Restricted Hartree-Fock

 Orbital guess generated from atomic densities. Full valence occupancy:   11   3

 Initial occupancy:   7   2

 NELEC=   18   SYM=1   MS2= 0   THRE=1.0D-08   THRD=3.2D-06   THRG=3.2D-06  HFMA2=F  DIIS_START=2   DIIS_MAX=10   DIIS_INCORE=F

 Level shifts:    0.00 (CLOSED)    0.00 (OPEN)    0.30 (GAP_MIN)

 ITER           ETOT              DE          GRAD        DDIFF     DIIS  NEXP   TIME(IT)  TIME(TOT)  DIAG
   1     -115.01456588    -115.01456588     0.00D+00     0.21D+00     0     0       0.01      0.01    start
   2     -115.04287198      -0.02830611     0.13D-01     0.27D-01     1     0       0.00      0.01    diag
   3     -115.04884081      -0.00596883     0.63D-02     0.84D-02     2     0       0.01      0.02    diag
   4     -115.04929959      -0.00045878     0.13D-02     0.27D-02     3     0       0.00      0.02    diag
   5     -115.04931991      -0.00002032     0.24D-03     0.56D-03     4     0       0.00      0.02    diag
   6     -115.04932067      -0.00000076     0.41D-04     0.12D-03     5     0       0.01      0.03    diag
   7     -115.04932070      -0.00000003     0.87D-05     0.19D-04     6     0       0.00      0.03    diag
   8     -115.04932070      -0.00000000     0.28D-05     0.67D-05     7     0       0.01      0.04    fixocc
   9     -115.04932070      -0.00000000     0.57D-06     0.18D-05     8     0       0.00      0.04    diag
  10     -115.04932070      -0.00000000     0.94D-07     0.23D-06     0     0       0.01      0.05    diag/orth

 Final occupancy:   7   2

 !RHF STATE 1.1 Energy               -115.049320701624
  RHF One-electron energy            -237.049135984219
  RHF Two-electron energy              81.606455148917
  RHF Kinetic energy                  114.964903885134
  RHF Nuclear energy                   40.393360133677
  RHF Virial quotient                  -1.000734283365

 !RHF STATE 1.1 Dipole moment           0.57065072     0.41535466     0.00000000
 Dipole moment /Debye                   1.45044944     1.05572624     0.00000000

 Orbital energies:

           1.1          2.1          3.1          4.1          5.1          6.1          7.1          8.1          9.1
    -20.548346   -11.273665    -1.350496    -0.922375    -0.683713    -0.586043    -0.496140     0.185137     0.224957

           1.2          2.2          3.2          4.2
     -0.614760    -0.442576     0.266906     0.643856


 HOMO      2.2    -0.442576 =     -12.0431eV
 LUMO      8.1     0.185137 =       5.0378eV
 LUMO-HOMO         0.627714 =      17.0810eV

 Orbitals saved in record  2100.2


 **********************************************************************************************************************************
 DATASETS  * FILE   NREC   LENGTH (MB)   RECORD NAMES
              1      19       30.31       500      610      700      900      950      970     1000      129      960     1100   
                                          VAR    BASINP    GEOM    SYMINP    ZMAT    AOBASIS   BASIS     P2S    ABASIS      S 
                                         1400     1410     1200     1210     1080     1600     1650     1300     1700   
                                           T        V       H0       H01     AOSYM     SMH    MOLCAS    ERIS     OPER   

              2       4        0.48       700     1000      520     2100   
                                         GEOM     BASIS   MCVARS     RHF  

 PROGRAMS   *        TOTAL    HF-SCF       INT
 CPU TIMES  *         0.73      0.05      0.55
 REAL TIME  *         3.20 SEC
 DISK USED  *        35.21 MB
 **********************************************************************************************************************************


 PROGRAM * MP4 (Closed-shell)     Authors: C. Hampel, H.-J. Werner, 1991, M. Deegan, P.J. Knowles, 1992


 Convergence thresholds:  THRVAR = 1.00D-08  THRDEN = 1.00D-06

 MP4(T)     terms to be evaluated (factor= 0.000)


 Number of core orbitals:           2 (   2   0 )
 Number of closed-shell orbitals:   7 (   5   2 )
 Number of external orbitals:      39 (  26  13 )

 Molecular orbitals read from record     2100.2  Type=RHF/CANONICAL  

 Number of N-1 electron functions:               7
 Number of N-2 electron functions:              28
 Number of singly external CSFs:               156
 Number of doubly external CSFs:             19149
 Total number of CSFs:                       19306

 Length of J-op  integral file:               0.00 MB
 Length of K-op  integral file:               0.15 MB

 Memory could be reduced to 0.39 Mwords without degradation in triples

 Integral transformation finished. Total CPU:   0.01 sec, npass=  1  Memory used:   0.23 MW

 Reference energy:                   -115.04932070

                        CORR.ENERGY   TOTAL ENERGY   ENERGY CHANGE
 MP2:                   -0.33797810  -115.38729880    -0.33797810

 SCS-MP2 correlation energy:           -0.33642514   (PS=  1.200000  PT=  0.333333)
 SCS-MP2 total energy:               -115.38574584

 MP3(D):                -0.35759802  -115.40691872    -0.01961991
 MP4(DQ):               -0.36065606  -115.40997676    -0.00305804
 MP4(SDQ):              -0.36245941  -115.41178011    -0.00180335

 Norm of t1 vector:      0.03335738      S-energy:    -0.00180335      T1 diagnostic:  0.00630395


 Total CPU time for triples:      0.08 sec


 RESULTS
 =======

  Reference energy                   -115.049320701624
  MP4(SDQ) singlet pair energy         -0.247252943415
  MP4(SDQ) triplet pair energy         -0.113403112383
  MP4(SDQ) correlation energy          -0.362459409947

  Triples contribution                 -0.007366966441
  Total correlation energy             -0.369826376389

  MP4(SDQ) total energy              -115.411780111572
 !MP4(SDTQ) total energy             -115.419147078013

 Timing summary (sec):

 STEP                 CPU(USER)    SYS     CPU(TOT)    WALL
 Transformation          0.01      0.01      0.02      0.35
 CCSD iterations         1.19      0.00      1.19      0.11
 Triples                 0.08      0.01      0.09      0.17

 Program statistics:

 Available memory in ccsd:               805306165
 Min. memory needed in ccsd:                 72083
 Max. memory used in ccsd:                   85659
 Max. memory used in cckext:                125084 ( 1 integral passes)



 **********************************************************************************************************************************
 DATASETS  * FILE   NREC   LENGTH (MB)   RECORD NAMES
              1      20       31.55       500      610      700      900      950      970     1000      129      960     1100   
                                          VAR    BASINP    GEOM    SYMINP    ZMAT    AOBASIS   BASIS     P2S    ABASIS      S 
                                         1400     1410     1200     1210     1080     1600     1650     1300     1700     1380   
                                           T        V       H0       H01     AOSYM     SMH    MOLCAS    ERIS     OPER     JKOP   

              2       4        0.48       700     1000      520     2100   
                                         GEOM     BASIS   MCVARS     RHF  

 PROGRAMS   *        TOTAL       MP4    HF-SCF       INT
 CPU TIMES  *         0.92      0.19      0.05      0.55
 REAL TIME  *         4.10 SEC
 DISK USED  *        35.21 MB
 **********************************************************************************************************************************

 Dump information in style XML to xml output                                                                      

 Orbitals will not be exported.

 **********************************************************************************************************************************

 MP4/cc-pVDZ energy=   -115.419147078013

             MP4          HF-SCF
   -115.41914708   -115.04932070
 **********************************************************************************************************************************
 Molpro calculation terminated
