
 Working directory              : /home/jovyan/scratch/molpro.D4TwQtaYGf/
 Global scratch directory       : /home/jovyan/scratch/molpro.D4TwQtaYGf/
 Wavefunction directory         : /home/jovyan/wfu/
 Main file repository           : /home/jovyan/scratch/molpro.D4TwQtaYGf/

 id        : cardiff

 Nodes                nprocs
 jupyter-c-2efrancisan    1
 GA implementation: MPI file
 GA implementation (serial work in mppx): MPI file

 Using customized tuning parameters: mindgm=1; mindgv=20; mindgc=4; mindgr=1; noblas=0; minvec=7
 default implementation of scratch files=df  


 Variables initialized (1031), CPU time= 0.00 sec
 
 
 
 geometry={
 8
  C     0.0000000   -0.0000000   -0.7565307
  C     0.0000000    0.0000000    0.7565307
  H     0.8767674    0.5062019   -1.1518715
  H    -0.0000000   -1.0124038   -1.1518715
  H    -0.8767674    0.5062019   -1.1518715
  H    -0.8767674   -0.5062019    1.1518715
  H     0.8767674   -0.5062019    1.1518715
  H    -0.0000000    1.0124038    1.1518715
 }
 basis=cc-pVDZ
 angstrom
 
 
 hf; mp4
 
 
 
 {put,xml;noorbitals,nobasis}
 Commands initialized (841), CPU time= 0.01 sec, 704 directives.
 Default parameters read. Elapsed time= 0.09 sec

 Checking input...
 Passed
1


                                         ***  PROGRAM SYSTEM MOLPRO  ***
                                       Copyright, TTI GmbH Stuttgart, 2015
                                    Version 2023.1 linked Mon Jun  5 13:27:10 2023


 **********************************************************************************************************************************
 LABEL *                                                                                                                                                                 
  (16 PROC) 64 bit serial version                                                        DATE: 02-Aug-23          TIME: 15:33:33  
 **********************************************************************************************************************************

 SHA1:             9738a14712571edd23541b6d7c4f3a3d766f8287
 **********************************************************************************************************************************

 Memory per process:       805 MW
 Total memory per node:   1074 MW
 Total GA space:           268 MW

 GA preallocation disabled
 GA check enabled

 Geometry recognized as XYZ


 Variable memory set to 805.3 MW

 SETTING BASIS          =    CC-PVDZ


 Recomputing integrals since basis changed


 Using spherical harmonics

 Library entry C      S cc-pVDZ              selected for orbital group  1
 Library entry C      P cc-pVDZ              selected for orbital group  1
 Library entry C      D cc-pVDZ              selected for orbital group  1
 Library entry H      S cc-pVDZ              selected for orbital group  2
 Library entry H      P cc-pVDZ              selected for orbital group  2


 PROGRAM * SEWARD (Integral evaluation for generally contracted gaussian basis sets)     Author: Roland Lindh, 1990

 Geometry written to block  1 of record 700


 Point group  C2h 



 ATOMIC COORDINATES

 NR  ATOM    CHARGE       X              Y              Z

   1  C       6.00    0.000000000    0.000000000   -1.429635828
   2  C       6.00    0.000000000    0.000000000    1.429635828
   3  H       1.00    1.656850261    0.956582955   -2.176721666
   4  H       1.00   -1.656850261    0.956582955   -2.176721666
   5  H       1.00   -1.656850261   -0.956582955    2.176721666
   6  H       1.00    1.656850261   -0.956582955    2.176721666
   7  H       1.00    0.000000000   -1.913165910   -2.176721666
   8  H       1.00    0.000000000    1.913165910    2.176721666

 Bond lengths in Bohr (Angstrom)

 1-2  2.859271656  1-3  2.053860021  1-4  2.053860021  1-7  2.053860036  2-5  2.053860021
     ( 1.513061400)     ( 1.086855918)     ( 1.086855918)     ( 1.086855925)     ( 1.086855918)

 2-6  2.053860021  2-8  2.053860036
     ( 1.086855918)     ( 1.086855925)

 Bond angles

  1-2-5  111.33050375   1-2-6  111.33050375   1-2-8  111.33050359   2-1-3  111.33050375

  2-1-4  111.33050375   2-1-7  111.33050359   3-1-4  107.54963893   3-1-7  107.54963966

  4-1-7  107.54963966   5-2-6  107.54963893   5-2-8  107.54963966   6-2-8  107.54963966

 NUCLEAR CHARGE:                   18
 NUMBER OF PRIMITIVE AOS:          96
 NUMBER OF SYMMETRY AOS:           94
 NUMBER OF CONTRACTIONS:           58   (   19Ag  +   10Au  +   19Bu  +   10Bg  )
 NUMBER OF INNER CORE ORBITALS:     0   (    0Ag  +    0Au  +    0Bu  +    0Bg  )
 NUMBER OF OUTER CORE ORBITALS:     2   (    1Ag  +    0Au  +    1Bu  +    0Bg  )
 NUMBER OF VALENCE ORBITALS:       14   (    5Ag  +    2Au  +    5Bu  +    2Bg  )


 NUCLEAR REPULSION ENERGY   42.52694634


 Eigenvalues of metric

         1 0.139E-01 0.359E-01 0.377E-01 0.473E-01 0.110E+00 0.113E+00 0.142E+00 0.262E+00
         2 0.355E-01 0.546E-01 0.147E+00 0.320E+00 0.691E+00 0.909E+00 0.110E+01 0.140E+01
         3 0.508E-02 0.321E-01 0.355E-01 0.515E-01 0.546E-01 0.102E+00 0.142E+00 0.147E+00
         4 0.359E-01 0.377E-01 0.113E+00 0.262E+00 0.415E+00 0.907E+00 0.109E+01 0.111E+01


 Contracted 2-electron integrals neglected if value below      1.0D-11
 AO integral compression algorithm  1   Integral accuracy      1.0D-11

     2.884 MB (compressed) written to integral file ( 60.0%)


 NUMBER OF SORTED TWO-ELECTRON INTEGRALS:     390445.     BUFFER LENGTH:  32768
 NUMBER OF SEGMENTS:   1  SEGMENT LENGTH:     390445      RECORD LENGTH: 524288

 Memory used in sort:       0.95 MW

 SORT1 READ      570576. AND WROTE      378037. INTEGRALS IN      2 RECORDS. CPU TIME:     0.01 SEC, REAL TIME:     0.08 SEC
 SORT2 READ      378037. AND WROTE      390445. INTEGRALS IN     11 RECORDS. CPU TIME:     0.04 SEC, REAL TIME:     0.07 SEC

 FILE SIZES:   FILE 1:    33.1 MBYTE,  FILE 4:     8.5 MBYTE,   TOTAL:     41.5 MBYTE

 OPERATOR DM      FOR CENTER  0  COORDINATES:    0.000000    0.000000    0.000000


 **********************************************************************************************************************************
 DATASETS  * FILE   NREC   LENGTH (MB)   RECORD NAMES
              1      19       30.59       500      610      700      900      950      970     1000      129      960     1100   
                                          VAR    BASINP    GEOM    SYMINP    ZMAT    AOBASIS   BASIS     P2S    ABASIS      S 
                                         1400     1410     1200     1210     1080     1600     1650     1300     1700   
                                           T        V       H0       H01     AOSYM     SMH    MOLCAS    ERIS     OPER   

 PROGRAMS   *        TOTAL       INT
 CPU TIMES  *         0.74      0.60
 REAL TIME  *         2.11 SEC
 DISK USED  *        40.04 MB
 **********************************************************************************************************************************


 Program * Restricted Hartree-Fock

 Orbital guess generated from atomic densities. Full valence occupancy:    6   2   6   2

 Initial occupancy:   4   1   3   1

 NELEC=   18   SYM=1   MS2= 0   THRE=1.0D-08   THRD=3.2D-06   THRG=3.2D-06  HFMA2=F  DIIS_START=2   DIIS_MAX=10   DIIS_INCORE=F

 Level shifts:    0.00 (CLOSED)    0.00 (OPEN)    0.30 (GAP_MIN)

 ITER           ETOT              DE          GRAD        DDIFF     DIIS  NEXP   TIME(IT)  TIME(TOT)  DIAG
   1      -79.20393582     -79.20393582     0.00D+00     0.24D+00     0     0       0.00      0.00    start
   2      -79.23085976      -0.02692394     0.12D-01     0.26D-01     1     0       0.01      0.01    diag
   3      -79.23421780      -0.00335804     0.47D-02     0.93D-02     2     0       0.00      0.01    diag
   4      -79.23470335      -0.00048555     0.14D-02     0.32D-02     3     0       0.00      0.01    diag
   5      -79.23470931      -0.00000596     0.15D-03     0.52D-03     4     0       0.01      0.02    diag
   6      -79.23470936      -0.00000005     0.13D-04     0.56D-04     5     0       0.00      0.02    diag
   7      -79.23470936      -0.00000000     0.14D-05     0.33D-05     6     0       0.00      0.02    diag
   8      -79.23470936      -0.00000000     0.22D-06     0.75D-06     7     0       0.00      0.02    fixocc
   9      -79.23470936       0.00000000     0.19D-07     0.63D-07     0     0       0.01      0.03    diag

 Final occupancy:   4   1   3   1

 !RHF STATE 1.1 Energy                -79.234709361240
  RHF One-electron energy            -189.580745222502
  RHF Two-electron energy              67.819089523576
  RHF Kinetic energy                   79.174685131730
  RHF Nuclear energy                   42.526946337687
  RHF Virial quotient                  -1.000758124007

 !RHF STATE 1.1 Dipole moment           0.00000000     0.00000000     0.00000000
 Dipole moment /Debye                   0.00000000     0.00000000     0.00000000

 Orbital energies:

           1.1          2.1          3.1          4.1          5.1          6.1
    -11.215722    -1.022041    -0.511754    -0.484673     0.187235     0.286897

           1.2          2.2          3.2
     -0.597522     0.255409     0.594155

           1.3          2.3          3.3          4.3          5.3
    -11.215101    -0.842275    -0.597522     0.236930     0.255409

           1.4          2.4          3.4
     -0.484673     0.286897     0.688236


 HOMO      1.4    -0.484673 =     -13.1886eV
 LUMO      5.1     0.187235 =       5.0949eV
 LUMO-HOMO         0.671909 =      18.2836eV

 Orbitals saved in record  2100.2


 **********************************************************************************************************************************
 DATASETS  * FILE   NREC   LENGTH (MB)   RECORD NAMES
              1      19       30.59       500      610      700      900      950      970     1000      129      960     1100   
                                          VAR    BASINP    GEOM    SYMINP    ZMAT    AOBASIS   BASIS     P2S    ABASIS      S 
                                         1400     1410     1200     1210     1080     1600     1650     1300     1700   
                                           T        V       H0       H01     AOSYM     SMH    MOLCAS    ERIS     OPER   

              2       4        0.51       700     1000      520     2100   
                                         GEOM     BASIS   MCVARS     RHF  

 PROGRAMS   *        TOTAL    HF-SCF       INT
 CPU TIMES  *         0.77      0.03      0.60
 REAL TIME  *         2.21 SEC
 DISK USED  *        40.04 MB
 **********************************************************************************************************************************


 PROGRAM * MP4 (Closed-shell)     Authors: C. Hampel, H.-J. Werner, 1991, M. Deegan, P.J. Knowles, 1992


 Convergence thresholds:  THRVAR = 1.00D-08  THRDEN = 1.00D-06

 MP4(T)     terms to be evaluated (factor= 0.000)


 Number of core orbitals:           2 (   1   0   1   0 )
 Number of closed-shell orbitals:   7 (   3   1   2   1 )
 Number of external orbitals:      49 (  15   9  16   9 )

 Molecular orbitals read from record     2100.2  Type=RHF/CANONICAL  

 Number of N-1 electron functions:               7
 Number of N-2 electron functions:              28
 Number of singly external CSFs:                95
 Number of doubly external CSFs:             15068
 Total number of CSFs:                       15164

 Length of J-op  integral file:               0.00 MB
 Length of K-op  integral file:               0.13 MB

 Memory could be reduced to 0.36 Mwords without degradation in triples

 Integral transformation finished. Total CPU:   0.01 sec, npass=  1  Memory used:   0.14 MW

 Reference energy:                    -79.23470936

                        CORR.ENERGY   TOTAL ENERGY   ENERGY CHANGE
 MP2:                   -0.30161503   -79.53632439    -0.30161503

 SCS-MP2 correlation energy:           -0.30762919   (PS=  1.200000  PT=  0.333333)
 SCS-MP2 total energy:                -79.54233855

 MP3(D):                -0.33382117   -79.56853053    -0.03220614
 MP4(DQ):               -0.33679237   -79.57150173    -0.00297120
 MP4(SDQ):              -0.33791555   -79.57262491    -0.00112319

 Norm of t1 vector:      0.02446806      S-energy:    -0.00112319      T1 diagnostic:  0.00462403


 Total CPU time for triples:      0.11 sec


 RESULTS
 =======

  Reference energy                    -79.234709361240
  MP4(SDQ) singlet pair energy         -0.244060223355
  MP4(SDQ) triplet pair energy         -0.092732144087
  MP4(SDQ) correlation energy          -0.337915553364

  Triples contribution                 -0.007308069562
  Total correlation energy             -0.345223622926

  MP4(SDQ) total energy               -79.572624914604
 !MP4(SDTQ) total energy              -79.579932984167

 Timing summary (sec):

 STEP                 CPU(USER)    SYS     CPU(TOT)    WALL
 Transformation          0.02      0.01      0.03      0.17
 CCSD iterations         1.10      0.00      1.10      0.05
 Triples                 0.11      0.01      0.12      0.14

 Program statistics:

 Available memory in ccsd:               805306168
 Min. memory needed in ccsd:                 54103
 Max. memory used in ccsd:                   65215
 Max. memory used in cckext:                 93673 ( 1 integral passes)



 **********************************************************************************************************************************
 DATASETS  * FILE   NREC   LENGTH (MB)   RECORD NAMES
              1      20       31.69       500      610      700      900      950      970     1000      129      960     1100   
                                          VAR    BASINP    GEOM    SYMINP    ZMAT    AOBASIS   BASIS     P2S    ABASIS      S 
                                         1400     1410     1200     1210     1080     1600     1650     1300     1700     1380   
                                           T        V       H0       H01     AOSYM     SMH    MOLCAS    ERIS     OPER     JKOP   

              2       4        0.51       700     1000      520     2100   
                                         GEOM     BASIS   MCVARS     RHF  

 PROGRAMS   *        TOTAL       MP4    HF-SCF       INT
 CPU TIMES  *         0.96      0.19      0.03      0.60
 REAL TIME  *         2.63 SEC
 DISK USED  *        40.04 MB
 **********************************************************************************************************************************

 Dump information in style XML to xml output                                                                      

 Orbitals will not be exported.

 **********************************************************************************************************************************

 MP4/cc-pVDZ energy=    -79.579932984167

             MP4          HF-SCF
    -79.57993298    -79.23470936
 **********************************************************************************************************************************
 Molpro calculation terminated
