
 Working directory              : /home/jovyan/scratch/molpro.mI9x997q8m/
 Global scratch directory       : /home/jovyan/scratch/molpro.mI9x997q8m/
 Wavefunction directory         : /home/jovyan/wfu/
 Main file repository           : /home/jovyan/scratch/molpro.mI9x997q8m/

 id        : cardiff

 Nodes                nprocs
 jupyter-c-2efrancisan    1
 GA implementation: MPI file
 GA implementation (serial work in mppx): MPI file

 Using customized tuning parameters: mindgm=1; mindgv=20; mindgc=4; mindgr=1; noblas=0; minvec=7
 default implementation of scratch files=df  


 Variables initialized (1031), CPU time= 0.01 sec
 
 
 
 geometry={
 5
    N   -0.11115880832978     -0.02551613494687     -0.01730510413245
    O   -0.58895878482719      0.46555591931502      1.24339838521922
    H   0.90087984737186     -0.04906254294276      0.02793548072260
    H   -0.33038589374312      0.73021745058808     -0.65400731806521
    H   0.15696863952822      0.47750630798653      1.84464755625584
 }
 basis=cc-pVDZ
 angstrom
 
 
 hf; mp2
 
 
 
 {put,xml;noorbitals,nobasis}
 Commands initialized (841), CPU time= 0.01 sec, 704 directives.
 Default parameters read. Elapsed time= 0.08 sec

 Checking input...
 Passed
1


                                         ***  PROGRAM SYSTEM MOLPRO  ***
                                       Copyright, TTI GmbH Stuttgart, 2015
                                    Version 2023.1 linked Mon Jun  5 13:27:10 2023


 **********************************************************************************************************************************
 LABEL *                                                                                                                                                                 
  (16 PROC) 64 bit serial version                                                        DATE: 03-Aug-23          TIME: 10:26:37  
 **********************************************************************************************************************************

 SHA1:             9738a14712571edd23541b6d7c4f3a3d766f8287
 **********************************************************************************************************************************

 Memory per process:       805 MW
 Total memory per node:   1074 MW
 Total GA space:           268 MW

 GA preallocation disabled
 GA check enabled

 Geometry recognized as XYZ


 Variable memory set to 805.3 MW

 SETTING BASIS          =    CC-PVDZ


 Recomputing integrals since basis changed


 Using spherical harmonics

 Library entry N      S cc-pVDZ              selected for orbital group  1
 Library entry N      P cc-pVDZ              selected for orbital group  1
 Library entry N      D cc-pVDZ              selected for orbital group  1
 Library entry O      S cc-pVDZ              selected for orbital group  2
 Library entry O      P cc-pVDZ              selected for orbital group  2
 Library entry O      D cc-pVDZ              selected for orbital group  2
 Library entry H      S cc-pVDZ              selected for orbital group  3
 Library entry H      P cc-pVDZ              selected for orbital group  3


 PROGRAM * SEWARD (Integral evaluation for generally contracted gaussian basis sets)     Author: Roland Lindh, 1990

 Geometry written to block  1 of record 700


 Point group  C1  



 ATOMIC COORDINATES

 NR  ATOM    CHARGE       X              Y              Z

   1  N       7.00   -0.210059704   -0.048218507   -0.032701907
   2  O       8.00   -1.112970802    0.879773183    2.349682412
   3  H       1.00    1.702416183   -0.092714769    0.052790408
   4  H       1.00   -0.624338855    1.379910993   -1.235894715
   5  H       1.00    0.296627739    0.902356145    3.485878678

 Bond lengths in Bohr (Angstrom)

 1-2  2.711488903  1-3  1.914902836  1-4  1.912813115  2-5  1.810640768
     ( 1.434858135)     ( 1.013322942)     ( 1.012217109)     ( 0.958149832)

 Bond angles

  1-2-5  107.24010633   2-1-3  107.53559750   2-1-4  103.00446012   3-1-4  105.17324127

 NUCLEAR CHARGE:                   18
 NUMBER OF PRIMITIVE AOS:          75
 NUMBER OF SYMMETRY AOS:           73
 NUMBER OF CONTRACTIONS:           43   (   43A   )
 NUMBER OF INNER CORE ORBITALS:     0   (    0A   )
 NUMBER OF OUTER CORE ORBITALS:     2   (    2A   )
 NUMBER OF VALENCE ORBITALS:       11   (   11A   )


 NUCLEAR REPULSION ENERGY   39.40147218

 Eigenvalues of metric

         1 0.917E-02 0.223E-01 0.362E-01 0.417E-01 0.454E-01 0.643E-01 0.835E-01 0.129E+00


 Contracted 2-electron integrals neglected if value below      1.0D-11
 AO integral compression algorithm  1   Integral accuracy      1.0D-11

     2.621 MB (compressed) written to integral file ( 62.8%)


 NUMBER OF SORTED TWO-ELECTRON INTEGRALS:     447931.     BUFFER LENGTH:  32768
 NUMBER OF SEGMENTS:   1  SEGMENT LENGTH:     447931      RECORD LENGTH: 524288

 Memory used in sort:       1.00 MW

 SORT1 READ      553316. AND WROTE      438091. INTEGRALS IN      2 RECORDS. CPU TIME:     0.00 SEC, REAL TIME:     0.02 SEC
 SORT2 READ      438091. AND WROTE      447931. INTEGRALS IN     10 RECORDS. CPU TIME:     0.03 SEC, REAL TIME:     0.03 SEC

 FILE SIZES:   FILE 1:    32.7 MBYTE,  FILE 4:     8.5 MBYTE,   TOTAL:     41.2 MBYTE

 OPERATOR DM      FOR CENTER  0  COORDINATES:    0.000000    0.000000    0.000000


 **********************************************************************************************************************************
 DATASETS  * FILE   NREC   LENGTH (MB)   RECORD NAMES
              1      19       30.73       500      610      700      900      950      970     1000      129      960     1100   
                                          VAR    BASINP    GEOM    SYMINP    ZMAT    AOBASIS   BASIS     P2S    ABASIS      S 
                                         1400     1410     1200     1210     1080     1600     1650     1300     1700   
                                           T        V       H0       H01     AOSYM     SMH    MOLCAS    ERIS     OPER   

 PROGRAMS   *        TOTAL       INT
 CPU TIMES  *         0.60      0.47
 REAL TIME  *         1.64 SEC
 DISK USED  *        39.67 MB
 **********************************************************************************************************************************


 Program * Restricted Hartree-Fock

 Orbital guess generated from atomic densities. Full valence occupancy:   13

 Initial occupancy:   9

 NELEC=   18   SYM=1   MS2= 0   THRE=1.0D-08   THRD=3.2D-06   THRG=3.2D-06  HFMA2=F  DIIS_START=2   DIIS_MAX=10   DIIS_INCORE=F

 Level shifts:    0.00 (CLOSED)    0.00 (OPEN)    0.30 (GAP_MIN)

 ITER           ETOT              DE          GRAD        DDIFF     DIIS  NEXP   TIME(IT)  TIME(TOT)  DIAG
   1     -130.95107447    -130.95107447     0.00D+00     0.18D+00     0     0       0.00      0.01    start
   2     -130.98131183      -0.03023736     0.11D-01     0.22D-01     1     0       0.01      0.02    diag
   3     -130.98502628      -0.00371445     0.42D-02     0.63D-02     2     0       0.00      0.02    diag
   4     -130.98546639      -0.00044011     0.12D-02     0.20D-02     3     0       0.01      0.03    diag
   5     -130.98550214      -0.00003575     0.29D-03     0.60D-03     4     0       0.01      0.04    diag
   6     -130.98550457      -0.00000243     0.63D-04     0.14D-03     5     0       0.00      0.04    diag
   7     -130.98550504      -0.00000046     0.26D-04     0.60D-04     6     0       0.01      0.05    diag
   8     -130.98550511      -0.00000007     0.74D-05     0.26D-04     7     0       0.00      0.05    fixocc
   9     -130.98550511      -0.00000001     0.22D-05     0.82D-05     8     0       0.01      0.06    diag
  10     -130.98550511      -0.00000000     0.63D-06     0.23D-05     9     0       0.00      0.06    diag/orth
  11     -130.98550511      -0.00000000     0.16D-06     0.30D-06     0     0       0.01      0.07    diag

 Final occupancy:   9

 !RHF STATE 1.1 Energy               -130.985505114057
  RHF One-electron energy            -257.768537146429
  RHF Two-electron energy              87.381559855684
  RHF Kinetic energy                  130.906483450012
  RHF Nuclear energy                   39.401472176688
  RHF Virial quotient                  -1.000603649735

 !RHF STATE 1.1 Dipole moment           1.05420105     0.41776528    -0.06493876
 Dipole moment /Debye                   2.67951179     1.06185342    -0.16505787

 Orbital energies:

           1.1          2.1          3.1          4.1          5.1          6.1          7.1          8.1          9.1         10.1
    -20.576455   -15.603269    -1.389755    -1.077630    -0.723550    -0.647248    -0.555443    -0.532734    -0.396624     0.172214

          11.1
      0.210667


 HOMO      9.1    -0.396624 =     -10.7927eV
 LUMO     10.1     0.172214 =       4.6862eV
 LUMO-HOMO         0.568839 =      15.4789eV

 Orbitals saved in record  2100.2


 **********************************************************************************************************************************
 DATASETS  * FILE   NREC   LENGTH (MB)   RECORD NAMES
              1      19       30.73       500      610      700      900      950      970     1000      129      960     1100   
                                          VAR    BASINP    GEOM    SYMINP    ZMAT    AOBASIS   BASIS     P2S    ABASIS      S 
                                         1400     1410     1200     1210     1080     1600     1650     1300     1700   
                                           T        V       H0       H01     AOSYM     SMH    MOLCAS    ERIS     OPER   

              2       4        0.47       700     1000      520     2100   
                                         GEOM     BASIS   MCVARS     RHF  

 PROGRAMS   *        TOTAL    HF-SCF       INT
 CPU TIMES  *         0.67      0.07      0.47
 REAL TIME  *         1.71 SEC
 DISK USED  *        39.67 MB
 **********************************************************************************************************************************


 PROGRAM * MP2 (Closed-shell)     Authors: C. Hampel, H.-J. Werner, 1991, M. Deegan, P.J. Knowles, 1992


 Convergence thresholds:  THRVAR = 1.00D-08  THRDEN = 1.00D-06

 Number of core orbitals:           2 (   2 )
 Number of closed-shell orbitals:   7 (   7 )
 Number of external orbitals:      34 (  34 )

 Molecular orbitals read from record     2100.2  Type=RHF/CANONICAL  

 Number of N-1 electron functions:               7
 Number of N-2 electron functions:              28
 Number of singly external CSFs:               238
 Number of doubly external CSFs:             28441
 Total number of CSFs:                       28680

 Length of J-op  integral file:               0.00 MB
 Length of K-op  integral file:               0.19 MB

 Integral transformation finished. Total CPU:   0.01 sec, npass=  1  Memory used:   0.18 MW

 Memory needed for MP2:                      0.01 MW

 SCS-MP2 correlation energy:           -0.359765606846   (PS=  1.200000  PT=  0.333333)
 SCS-MP2 total energy:               -131.345270720903


  Reference energy                   -130.985505114057
  MP2 singlet pair energy              -0.229320732288
  MP2 triplet pair energy              -0.135933313018
  MP2 correlation energy               -0.365254045307

 !MP2 total energy                   -131.350759159364


 **********************************************************************************************************************************
 DATASETS  * FILE   NREC   LENGTH (MB)   RECORD NAMES
              1      20       31.35       500      610      700      900      950      970     1000      129      960     1100   
                                          VAR    BASINP    GEOM    SYMINP    ZMAT    AOBASIS   BASIS     P2S    ABASIS      S 
                                         1400     1410     1200     1210     1080     1600     1650     1300     1700     1380   
                                           T        V       H0       H01     AOSYM     SMH    MOLCAS    ERIS     OPER     JKOP   

              2       4        0.47       700     1000      520     2100   
                                         GEOM     BASIS   MCVARS     RHF  

 PROGRAMS   *        TOTAL       MP2    HF-SCF       INT
 CPU TIMES  *         0.73      0.06      0.07      0.47
 REAL TIME  *         1.83 SEC
 DISK USED  *        39.67 MB
 **********************************************************************************************************************************

 Dump information in style XML to xml output                                                                      

 Orbitals will not be exported.

 **********************************************************************************************************************************

 MP2/cc-pVDZ energy=   -131.350759159364

             MP2          HF-SCF
   -131.35075916   -130.98550511
 **********************************************************************************************************************************
 Molpro calculation terminated
