
 Working directory              : /home/jovyan/scratch/molpro.H4p89HhLeM/
 Global scratch directory       : /home/jovyan/scratch/molpro.H4p89HhLeM/
 Wavefunction directory         : /home/jovyan/wfu/
 Main file repository           : /home/jovyan/scratch/molpro.H4p89HhLeM/

 id        : cardiff

 Nodes                nprocs
 jupyter-c-2efrancisan    1
 GA implementation: MPI file
 GA implementation (serial work in mppx): MPI file

 Using customized tuning parameters: mindgm=1; mindgv=20; mindgc=4; mindgr=1; noblas=0; minvec=7
 default implementation of scratch files=df  


 Variables initialized (1031), CPU time= 0.00 sec
 
 
 
 geometry={
 12
  4H2OTS (Full point group D2d)
  O -1.703649 0.000000 0.039217
  H 0.935877 0.935877 0.000000
  H -0.935877 0.935877 0.000000
  O 0.000000 1.703649 -0.039217
  H -0.935877 -0.935877 0.000000
  O 0.000000 -1.703649 -0.039217
  H 0.935877 -0.935877 0.000000
  O 1.703649 0.000000 0.039217
  H 2.295559 0.000000 -0.717948
  H 0.000000 2.295559 0.717948
  H -2.295559 0.000000 -0.717948
  H 0.000000 -2.295559 0.717948
 }
 basis=cc-pVDZ
 angstrom
 
 
 hf; mp2
 
 
 
 {put,xml;noorbitals,nobasis}
 Commands initialized (841), CPU time= 0.01 sec, 704 directives.
 Default parameters read. Elapsed time= 0.08 sec

 Checking input...
 Passed
1


                                         ***  PROGRAM SYSTEM MOLPRO  ***
                                       Copyright, TTI GmbH Stuttgart, 2015
                                    Version 2023.1 linked Mon Jun  5 13:27:10 2023


 **********************************************************************************************************************************
 LABEL *                                                                                                                                                                 
  (16 PROC) 64 bit serial version                                                        DATE: 03-Aug-23          TIME: 12:35:57  
 **********************************************************************************************************************************

 SHA1:             9738a14712571edd23541b6d7c4f3a3d766f8287
 **********************************************************************************************************************************

 Memory per process:       805 MW
 Total memory per node:   1074 MW
 Total GA space:           268 MW

 GA preallocation disabled
 GA check enabled

 Geometry recognized as XYZ


 Variable memory set to 805.3 MW

 SETTING BASIS          =    CC-PVDZ


 Recomputing integrals since basis changed


 Using spherical harmonics

 Library entry O      S cc-pVDZ              selected for orbital group  1
 Library entry O      P cc-pVDZ              selected for orbital group  1
 Library entry O      D cc-pVDZ              selected for orbital group  1
 Library entry H      S cc-pVDZ              selected for orbital group  2
 Library entry H      P cc-pVDZ              selected for orbital group  2


 PROGRAM * SEWARD (Integral evaluation for generally contracted gaussian basis sets)     Author: Roland Lindh, 1990

 Geometry written to block  1 of record 700


 Point group  C2v 



 ATOMIC COORDINATES

 NR  ATOM    CHARGE       X              Y              Z

   1  O       8.00   -3.219430022    0.000000000    0.074109389
   2  O       8.00    3.219430022    0.000000000    0.074109389
   3  H       1.00    1.768551216    1.768551216    0.000000000
   4  H       1.00   -1.768551216    1.768551216    0.000000000
   5  H       1.00   -1.768551216   -1.768551216    0.000000000
   6  H       1.00    1.768551216   -1.768551216    0.000000000
   7  O       8.00    0.000000000    3.219430022   -0.074109389
   8  O       8.00    0.000000000   -3.219430022   -0.074109389
   9  H       1.00    4.337977813    0.000000000   -1.356725092
  10  H       1.00   -4.337977813    0.000000000   -1.356725092
  11  H       1.00    0.000000000    4.337977813    1.356725092
  12  H       1.00    0.000000000   -4.337977813    1.356725092

 Bond lengths in Bohr (Angstrom)

  1- 4  2.288736533   1- 5  2.288736533   1-10  1.816159815   2- 3  2.288736533   2- 6  2.288736533
       ( 1.211147215)       ( 1.211147215)       ( 0.961070385)       ( 1.211147215)       ( 1.211147215)

 2-9  1.816159815  3-7  2.288736533  4-7  2.288736533  5-8  2.288736533  6-8  2.288736533
     ( 0.961070385)     ( 1.211147215)     ( 1.211147215)     ( 1.211147215)     ( 1.211147215)

  7-11  1.816159815   8-12  1.816159815
       ( 0.961070385)       ( 0.961070385)

 Bond angles

  1-4-7  168.73526387   1-5-8  168.73526387   2-3-7  168.73526387   2-6-8  168.73526387

  3- 2- 6  101.19744878   3- 2- 9  111.40224372   3- 7- 4  101.19744878   3- 7-11  111.40224372

  4- 1- 5  101.19744878   4- 1-10  111.40224372   4- 7-11  111.40224372   5- 1-10  111.40224372

  5- 8- 6  101.19744878   5- 8-12  111.40224372   6- 2- 9  111.40224372   6- 8-12  111.40224372

 NUCLEAR CHARGE:                   40
 NUMBER OF PRIMITIVE AOS:         164
 NUMBER OF SYMMETRY AOS:          160
 NUMBER OF CONTRACTIONS:           96   (   33A1  +   24B1  +   24B2  +   15A2  )
 NUMBER OF INNER CORE ORBITALS:     0   (    0A1  +    0B1  +    0B2  +    0A2  )
 NUMBER OF OUTER CORE ORBITALS:     4   (    2A1  +    1B1  +    1B2  +    0A2  )
 NUMBER OF VALENCE ORBITALS:       24   (    9A1  +    6B1  +    6B2  +    3A2  )


 NUCLEAR REPULSION ENERGY  155.37845946


 Eigenvalues of metric

         1 0.131E-01 0.179E-01 0.402E-01 0.451E-01 0.625E-01 0.761E-01 0.999E-01 0.161E+00
         2 0.143E-01 0.421E-01 0.436E-01 0.726E-01 0.105E+00 0.164E+00 0.195E+00 0.214E+00
         3 0.143E-01 0.421E-01 0.436E-01 0.726E-01 0.105E+00 0.164E+00 0.195E+00 0.214E+00
         4 0.329E-01 0.616E-01 0.116E+00 0.210E+00 0.325E+00 0.552E+00 0.563E+00 0.784E+00


 Contracted 2-electron integrals neglected if value below      1.0D-11
 AO integral compression algorithm  1   Integral accuracy      1.0D-11

     14.942 MB (compressed) written to integral file ( 52.8%)


 NUMBER OF SORTED TWO-ELECTRON INTEGRALS:    2808321.     BUFFER LENGTH:  32768
 NUMBER OF SEGMENTS:   1  SEGMENT LENGTH:    2808321      RECORD LENGTH: 524288

 Memory used in sort:       3.37 MW

 SORT1 READ     3527252. AND WROTE     2777337. INTEGRALS IN      8 RECORDS. CPU TIME:     0.08 SEC, REAL TIME:     0.15 SEC
 SORT2 READ     2777337. AND WROTE     2808321. INTEGRALS IN     57 RECORDS. CPU TIME:     0.12 SEC, REAL TIME:     0.15 SEC

 FILE SIZES:   FILE 1:    45.3 MBYTE,  FILE 4:    33.6 MBYTE,   TOTAL:     79.0 MBYTE

 OPERATOR DM      FOR CENTER  0  COORDINATES:    0.000000    0.000000    0.000000


 **********************************************************************************************************************************
 DATASETS  * FILE   NREC   LENGTH (MB)   RECORD NAMES
              1      19       40.46       500      610      700      900      950      970     1000      129      960     1100   
                                          VAR    BASINP    GEOM    SYMINP    ZMAT    AOBASIS   BASIS     P2S    ABASIS      S 
                                         1400     1410     1200     1210     1080     1600     1650     1300     1700   
                                           T        V       H0       H01     AOSYM     SMH    MOLCAS    ERIS     OPER   

 PROGRAMS   *        TOTAL       INT
 CPU TIMES  *         1.50      1.37
 REAL TIME  *         2.71 SEC
 DISK USED  *        75.82 MB
 **********************************************************************************************************************************


 Program * Restricted Hartree-Fock

 Orbital guess generated from atomic densities. Full valence occupancy:   11   7   7   3

 Initial occupancy:   8   5   5   2

 NELEC=   40   SYM=1   MS2= 0   THRE=1.0D-08   THRD=3.2D-06   THRG=3.2D-06  HFMA2=F  DIIS_START=2   DIIS_MAX=10   DIIS_INCORE=F

 Level shifts:    0.00 (CLOSED)    0.00 (OPEN)    0.30 (GAP_MIN)

 ITER           ETOT              DE          GRAD        DDIFF     DIIS  NEXP   TIME(IT)  TIME(TOT)  DIAG
   1     -303.98218957    -303.98218957     0.00D+00     0.23D+00     0     0       0.02      0.03    start
   2     -304.05929388      -0.07710430     0.17D-01     0.34D-01     1     0       0.01      0.04    diag
   3     -304.07765892      -0.01836504     0.80D-02     0.11D-01     2     0       0.02      0.06    diag
   4     -304.07825221      -0.00059329     0.11D-02     0.21D-02     3     0       0.01      0.07    diag
   5     -304.07828111      -0.00002890     0.20D-03     0.44D-03     4     0       0.01      0.08    diag
   6     -304.07828286      -0.00000175     0.44D-04     0.11D-03     5     0       0.02      0.10    diag
   7     -304.07828289      -0.00000004     0.65D-05     0.18D-04     6     0       0.01      0.11    diag
   8     -304.07828289      -0.00000000     0.88D-06     0.19D-05     7     0       0.02      0.13    fixocc
   9     -304.07828289      -0.00000000     0.16D-06     0.30D-06     0     0       0.01      0.14    diag

 Final occupancy:   8   5   5   2

 !RHF STATE 1.1 Energy               -304.078282894273
  RHF One-electron energy            -730.079709259177
  RHF Two-electron energy             270.622966904857
  RHF Kinetic energy                  303.815720113566
  RHF Nuclear energy                  155.378459460047
  RHF Virial quotient                  -1.000864217232

 !RHF STATE 1.1 Dipole moment           0.00000000     0.00000000     0.00000000
 Dipole moment /Debye                   0.00000000     0.00000000     0.00000000

 Orbital energies:

           1.1          2.1          3.1          4.1          5.1          6.1          7.1          8.1          9.1         10.1
    -20.538237   -20.538196    -1.360103    -1.277825    -0.737340    -0.626130    -0.519857    -0.469981     0.178193     0.244125

           1.2          2.2          3.2          4.2          5.2          6.2          7.2
    -20.538217    -1.319326    -0.710178    -0.563140    -0.471172     0.218494     0.438949

           1.3          2.3          3.3          4.3          5.3          6.3          7.3
    -20.538217    -1.319326    -0.710178    -0.563140    -0.471172     0.218494     0.438949

           1.4          2.4          3.4          4.4
     -0.703471    -0.441672     0.444965     0.667105


 HOMO      2.4    -0.441672 =     -12.0185eV
 LUMO      9.1     0.178193 =       4.8489eV
 LUMO-HOMO         0.619865 =      16.8674eV

 Orbitals saved in record  2100.2


 **********************************************************************************************************************************
 DATASETS  * FILE   NREC   LENGTH (MB)   RECORD NAMES
              1      19       40.46       500      610      700      900      950      970     1000      129      960     1100   
                                          VAR    BASINP    GEOM    SYMINP    ZMAT    AOBASIS   BASIS     P2S    ABASIS      S 
                                         1400     1410     1200     1210     1080     1600     1650     1300     1700   
                                           T        V       H0       H01     AOSYM     SMH    MOLCAS    ERIS     OPER   

              2       4        0.61       700     1000      520     2100   
                                         GEOM     BASIS   MCVARS     RHF  

 PROGRAMS   *        TOTAL    HF-SCF       INT
 CPU TIMES  *         1.64      0.14      1.37
 REAL TIME  *         2.96 SEC
 DISK USED  *        75.82 MB
 **********************************************************************************************************************************


 PROGRAM * MP2 (Closed-shell)     Authors: C. Hampel, H.-J. Werner, 1991, M. Deegan, P.J. Knowles, 1992


 Convergence thresholds:  THRVAR = 1.00D-08  THRDEN = 1.00D-06

 Number of core orbitals:           4 (   2   1   1   0 )
 Number of closed-shell orbitals:  16 (   6   4   4   2 )
 Number of external orbitals:      76 (  25  19  19  13 )

 Molecular orbitals read from record     2100.2  Type=RHF/CANONICAL  

 Number of N-1 electron functions:              16
 Number of N-2 electron functions:             136
 Number of singly external CSFs:               328
 Number of doubly external CSFs:            186016
 Total number of CSFs:                      186345

 Length of J-op  integral file:               0.00 MB
 Length of K-op  integral file:               0.23 MB

 Integral transformation finished. Total CPU:   0.05 sec, npass=  1  Memory used:   0.37 MW

 Memory needed for MP2:                      0.01 MW

 SCS-MP2 correlation energy:           -0.836926483701   (PS=  1.200000  PT=  0.333333)
 SCS-MP2 total energy:               -304.915209377974


  Reference energy                   -304.078282894273
  MP2 singlet pair energy              -0.520905974970
  MP2 triplet pair energy              -0.340456039934
  MP2 correlation energy               -0.861362014904

 !MP2 total energy                   -304.939644909177


 **********************************************************************************************************************************
 DATASETS  * FILE   NREC   LENGTH (MB)   RECORD NAMES
              1      20       44.13       500      610      700      900      950      970     1000      129      960     1100   
                                          VAR    BASINP    GEOM    SYMINP    ZMAT    AOBASIS   BASIS     P2S    ABASIS      S 
                                         1400     1410     1200     1210     1080     1600     1650     1300     1700     1380   
                                           T        V       H0       H01     AOSYM     SMH    MOLCAS    ERIS     OPER     JKOP   

              2       4        0.61       700     1000      520     2100   
                                         GEOM     BASIS   MCVARS     RHF  

 PROGRAMS   *        TOTAL       MP2    HF-SCF       INT
 CPU TIMES  *         1.79      0.14      0.14      1.37
 REAL TIME  *         3.30 SEC
 DISK USED  *        75.82 MB
 **********************************************************************************************************************************

 Dump information in style XML to xml output                                                                      

 Orbitals will not be exported.

 **********************************************************************************************************************************

 MP2/cc-pVDZ energy=   -304.939644909177

             MP2          HF-SCF
   -304.93964491   -304.07828289
 **********************************************************************************************************************************
 Molpro calculation terminated
