
 Working directory              : /home/jovyan/scratch/molpro.85FJzHq49t/
 Global scratch directory       : /home/jovyan/scratch/molpro.85FJzHq49t/
 Wavefunction directory         : /home/jovyan/wfu/
 Main file repository           : /home/jovyan/scratch/molpro.85FJzHq49t/

 id        : cardiff

 Nodes                nprocs
 jupyter-c-2efrancisan    1
 GA implementation: MPI file
 GA implementation (serial work in mppx): MPI file

 Using customized tuning parameters: mindgm=1; mindgv=20; mindgc=4; mindgr=1; noblas=0; minvec=7
 default implementation of scratch files=df  


 Variables initialized (1031), CPU time= 0.01 sec
 
 
 
 geometry={
            6
     C         -0.13926933      0.33472048      0.00000000
     O         -0.13926933     -1.08341104      0.00000000
     H         -1.17980283      0.64759124      0.00000000
     H          0.76774408     -1.38539133      0.00000000
     H          0.34529870      0.74324532      0.88954166
     H          0.34529870      0.74324532     -0.88954166
 }
 basis=cc-pVTZ
 angstrom
 
 
 hf
 
 
 
 {put,xml;noorbitals,nobasis}
 Commands initialized (841), CPU time= 0.01 sec, 704 directives.
 Default parameters read. Elapsed time= 0.09 sec

 Checking input...
 Passed
1


                                         ***  PROGRAM SYSTEM MOLPRO  ***
                                       Copyright, TTI GmbH Stuttgart, 2015
                                    Version 2023.1 linked Mon Jun  5 13:27:10 2023


 **********************************************************************************************************************************
 LABEL *                                                                                                                                                                 
  (16 PROC) 64 bit serial version                                                        DATE: 02-Aug-23          TIME: 15:33:10  
 **********************************************************************************************************************************

 SHA1:             9738a14712571edd23541b6d7c4f3a3d766f8287
 **********************************************************************************************************************************

 Memory per process:       805 MW
 Total memory per node:   1074 MW
 Total GA space:           268 MW

 GA preallocation disabled
 GA check enabled

 Geometry recognized as XYZ


 Variable memory set to 805.3 MW

 SETTING BASIS          =    CC-PVTZ


 Recomputing integrals since basis changed


 Using spherical harmonics

 Library entry C      S cc-pVTZ              selected for orbital group  1
 Library entry C      P cc-pVTZ              selected for orbital group  1
 Library entry C      D cc-pVTZ              selected for orbital group  1
 Library entry C      F cc-pVTZ              selected for orbital group  1
 Library entry O      S cc-pVTZ              selected for orbital group  2
 Library entry O      P cc-pVTZ              selected for orbital group  2
 Library entry O      D cc-pVTZ              selected for orbital group  2
 Library entry O      F cc-pVTZ              selected for orbital group  2
 Library entry H      S cc-pVTZ              selected for orbital group  3
 Library entry H      P cc-pVTZ              selected for orbital group  3
 Library entry H      D cc-pVTZ              selected for orbital group  3


 PROGRAM * SEWARD (Integral evaluation for generally contracted gaussian basis sets)     Author: Roland Lindh, 1990

 Geometry written to block  1 of record 700


 Point group  Cs  



 ATOMIC COORDINATES

 NR  ATOM    CHARGE       X              Y              Z

   1  C       6.00   -0.263180891    0.632530036    0.000000000
   2  O       8.00   -0.263180891   -2.047350146    0.000000000
   3  H       1.00   -2.229504230    1.223770084    0.000000000
   4  H       1.00    1.450826045   -2.618010189    0.000000000
   5  H       1.00    0.652519974    1.404530098    1.680990114
   6  H       1.00    0.652519974    1.404530098   -1.680990114

 Bond lengths in Bohr (Angstrom)

 1-2  2.679880181  1-3  2.053288160  1-5  2.064030023  1-6  2.064030023  2-4  1.806508417
     ( 1.418131520)     ( 1.086553302)     ( 1.092237651)     ( 1.092237651)     ( 0.955963086)

 Bond angles

  1-2-4  108.41462081   2-1-3  106.73514063   2-1-5  111.96410162   2-1-6  111.96410162

  3-1-5  108.49107784   3-1-6  108.49107784   5-1-6  109.06037247

 NUCLEAR CHARGE:                   18
 NUMBER OF PRIMITIVE AOS:         162
 NUMBER OF SYMMETRY AOS:          148
 NUMBER OF CONTRACTIONS:          116   (   74A'  +   42A"  )
 NUMBER OF INNER CORE ORBITALS:     0   (    0A'  +    0A"  )
 NUMBER OF OUTER CORE ORBITALS:     2   (    2A'  +    0A"  )
 NUMBER OF VALENCE ORBITALS:       12   (    9A'  +    3A"  )


 NUCLEAR REPULSION ENERGY   40.39336013

 Eigenvalues of metric

         1 0.132E-02 0.180E-02 0.232E-02 0.328E-02 0.458E-02 0.725E-02 0.996E-02 0.103E-01
         2 0.190E-02 0.105E-01 0.216E-01 0.320E-01 0.374E-01 0.473E-01 0.758E-01 0.960E-01


 Contracted 2-electron integrals neglected if value below      1.0D-11
 AO integral compression algorithm  1   Integral accuracy      1.0D-11

     58.196 MB (compressed) written to integral file ( 51.9%)


 NUMBER OF SORTED TWO-ELECTRON INTEGRALS:   11777331.     BUFFER LENGTH:  32768
 NUMBER OF SEGMENTS:   1  SEGMENT LENGTH:   11777331      RECORD LENGTH: 524288

 Memory used in sort:      12.33 MW

 SORT1 READ    14086316. AND WROTE    11264009. INTEGRALS IN     33 RECORDS. CPU TIME:     0.18 SEC, REAL TIME:     0.89 SEC
 SORT2 READ    11264009. AND WROTE    11777331. INTEGRALS IN    222 RECORDS. CPU TIME:     0.31 SEC, REAL TIME:     0.37 SEC

 FILE SIZES:   FILE 1:    88.6 MBYTE,  FILE 4:   138.5 MBYTE,   TOTAL:    227.1 MBYTE

 OPERATOR DM      FOR CENTER  0  COORDINATES:    0.000000    0.000000    0.000000


 **********************************************************************************************************************************
 DATASETS  * FILE   NREC   LENGTH (MB)   RECORD NAMES
              1      19       76.32       500      610      700      900      950      970     1000      129      960     1100   
                                          VAR    BASINP    GEOM    SYMINP    ZMAT    AOBASIS   BASIS     P2S    ABASIS      S 
                                         1400     1410     1200     1210     1080     1600     1650     1300     1700   
                                           T        V       H0       H01     AOSYM     SMH    MOLCAS    ERIS     OPER   

 PROGRAMS   *        TOTAL       INT
 CPU TIMES  *         2.40      2.28
 REAL TIME  *         4.55 SEC
 DISK USED  *       217.02 MB
 **********************************************************************************************************************************


 Program * Restricted Hartree-Fock

 Orbital guess generated from atomic densities. Full valence occupancy:   11   3

 Initial occupancy:   7   2

 NELEC=   18   SYM=1   MS2= 0   THRE=1.0D-08   THRD=3.2D-06   THRG=3.2D-06  HFMA2=F  DIIS_START=2   DIIS_MAX=10   DIIS_INCORE=F

 Level shifts:    0.00 (CLOSED)    0.00 (OPEN)    0.30 (GAP_MIN)

 ITER           ETOT              DE          GRAD        DDIFF     DIIS  NEXP   TIME(IT)  TIME(TOT)  DIAG
   1     -115.05367149    -115.05367149     0.00D+00     0.96D-01     0     0       0.08      0.16    start
   2     -115.08195454      -0.02828304     0.83D-02     0.11D-01     1     0       0.08      0.24    diag
   3     -115.08897280      -0.00701827     0.45D-02     0.35D-02     2     0       0.09      0.33    diag
   4     -115.08947535      -0.00050255     0.87D-03     0.93D-03     3     0       0.08      0.41    diag
   5     -115.08950547      -0.00003012     0.17D-03     0.25D-03     4     0       0.08      0.49    diag
   6     -115.08950678      -0.00000131     0.32D-04     0.65D-04     5     0       0.08      0.57    diag
   7     -115.08950683      -0.00000005     0.68D-05     0.12D-04     6     0       0.09      0.66    diag
   8     -115.08950684      -0.00000000     0.21D-05     0.32D-05     7     0       0.08      0.74    fixocc
   9     -115.08950684      -0.00000000     0.56D-06     0.10D-05     8     0       0.09      0.83    diag
  10     -115.08950684      -0.00000000     0.10D-06     0.17D-06     0     0       0.09      0.92    diag/orth

 Final occupancy:   7   2

 !RHF STATE 1.1 Energy               -115.089506838515
  RHF One-electron energy            -237.070790732437
  RHF Two-electron energy              81.587923760245
  RHF Kinetic energy                  114.963351932914
  RHF Nuclear energy                   40.393360133677
  RHF Virial quotient                  -1.001097348881

 !RHF STATE 1.1 Dipole moment           0.56426076     0.40864629     0.00000000
 Dipole moment /Debye                   1.43420779     1.03867527     0.00000000

 Orbital energies:

           1.1          2.1          3.1          4.1          5.1          6.1          7.1          8.1          9.1
    -20.551140   -11.268611    -1.354817    -0.924185    -0.688855    -0.591174    -0.501239     0.138794     0.178965

           1.2          2.2          3.2          4.2
     -0.618744    -0.448710     0.220297     0.404145


 HOMO      2.2    -0.448710 =     -12.2100eV
 LUMO      8.1     0.138794 =       3.7768eV
 LUMO-HOMO         0.587504 =      15.9868eV

 Orbitals saved in record  2100.2


 **********************************************************************************************************************************
 DATASETS  * FILE   NREC   LENGTH (MB)   RECORD NAMES
              1      19       76.32       500      610      700      900      950      970     1000      129      960     1100   
                                          VAR    BASINP    GEOM    SYMINP    ZMAT    AOBASIS   BASIS     P2S    ABASIS      S 
                                         1400     1410     1200     1210     1080     1600     1650     1300     1700   
                                           T        V       H0       H01     AOSYM     SMH    MOLCAS    ERIS     OPER   

              2       4        0.58       700     1000      520     2100   
                                         GEOM     BASIS   MCVARS     RHF  

 PROGRAMS   *        TOTAL    HF-SCF       INT
 CPU TIMES  *         3.33      0.93      2.28
 REAL TIME  *         5.63 SEC
 DISK USED  *       217.02 MB
 **********************************************************************************************************************************

 Dump information in style XML to xml output                                                                      

 Orbitals will not be exported.

 **********************************************************************************************************************************

 HF/cc-pVTZ energy=   -115.089506838515

          HF-SCF
   -115.08950684
 **********************************************************************************************************************************
 Molpro calculation terminated
