
 Working directory              : /home/jovyan/scratch/molpro.xLAGZpdCCY/
 Global scratch directory       : /home/jovyan/scratch/molpro.xLAGZpdCCY/
 Wavefunction directory         : /home/jovyan/wfu/
 Main file repository           : /home/jovyan/scratch/molpro.xLAGZpdCCY/

 id        : cardiff

 Nodes                nprocs
 jupyter-c-2efrancisan    1
 GA implementation: MPI file
 GA implementation (serial work in mppx): MPI file

 Using customized tuning parameters: mindgm=1; mindgv=20; mindgc=4; mindgr=1; noblas=0; minvec=7
 default implementation of scratch files=df  


 Variables initialized (1031), CPU time= 0.00 sec
 
 
 
 geometry={
            5
     C          0.00000000      0.00000000      0.06556637
     F          0.00000000      0.00000000     -1.31562859
     H          0.51491633     -0.89186125      0.41668741
     H          0.51491633      0.89186125      0.41668741
     H         -1.02983267      0.00000000      0.41668741
 }
 basis=cc-pVTZ
 angstrom
 
 
 hf; papt;mp4
 
 
 
 {put,xml;noorbitals,nobasis}
 Commands initialized (841), CPU time= 0.01 sec, 704 directives.
 Default parameters read. Elapsed time= 0.08 sec

 Checking input...
 Passed
1


                                         ***  PROGRAM SYSTEM MOLPRO  ***
                                       Copyright, TTI GmbH Stuttgart, 2015
                                    Version 2023.1 linked Mon Jun  5 13:27:10 2023


 **********************************************************************************************************************************
 LABEL *                                                                                                                                                                 
  (16 PROC) 64 bit serial version                                                        DATE: 02-Aug-23          TIME: 15:48:03  
 **********************************************************************************************************************************

 SHA1:             9738a14712571edd23541b6d7c4f3a3d766f8287
 **********************************************************************************************************************************

 Memory per process:       805 MW
 Total memory per node:   1074 MW
 Total GA space:           268 MW

 GA preallocation disabled
 GA check enabled

 Geometry recognized as XYZ


 Variable memory set to 805.3 MW

 SETTING BASIS          =    CC-PVTZ


 Recomputing integrals since basis changed


 Using spherical harmonics

 Library entry C      S cc-pVTZ              selected for orbital group  1
 Library entry C      P cc-pVTZ              selected for orbital group  1
 Library entry C      D cc-pVTZ              selected for orbital group  1
 Library entry C      F cc-pVTZ              selected for orbital group  1
 Library entry F      S cc-pVTZ              selected for orbital group  2
 Library entry F      P cc-pVTZ              selected for orbital group  2
 Library entry F      D cc-pVTZ              selected for orbital group  2
 Library entry F      F cc-pVTZ              selected for orbital group  2
 Library entry H      S cc-pVTZ              selected for orbital group  3
 Library entry H      P cc-pVTZ              selected for orbital group  3
 Library entry H      D cc-pVTZ              selected for orbital group  3


 PROGRAM * SEWARD (Integral evaluation for generally contracted gaussian basis sets)     Author: Roland Lindh, 1990

 Geometry written to block  1 of record 700


 Point group  Cs  



 ATOMIC COORDINATES

 NR  ATOM    CHARGE       X              Y              Z

   1  C       6.00    0.000000000    0.000000000    0.123902482
   2  F       9.00    0.000000000    0.000000000   -2.486177717
   3  H       1.00    0.973050841   -1.685373504    0.787425084
   4  H       1.00    0.973050841    1.685373504    0.787425084
   5  H       1.00   -1.946101700    0.000000000    0.787425084

 Bond lengths in Bohr (Angstrom)

 1-2  2.610080199  1-3  2.056106522  1-4  2.056106522  1-5  2.056106532
     ( 1.381194960)     ( 1.088044715)     ( 1.088044715)     ( 1.088044720)

 Bond angles

  2-1-3  108.82678959   2-1-4  108.82678959   2-1-5  108.82678949   3-1-4  110.10789247

  3-1-5  110.10789219   4-1-5  110.10789219

 NUCLEAR CHARGE:                   18
 NUMBER OF PRIMITIVE AOS:         145
 NUMBER OF SYMMETRY AOS:          132
 NUMBER OF CONTRACTIONS:          102   (   64A'  +   38A"  )
 NUMBER OF INNER CORE ORBITALS:     0   (    0A'  +    0A"  )
 NUMBER OF OUTER CORE ORBITALS:     2   (    2A'  +    0A"  )
 NUMBER OF VALENCE ORBITALS:       11   (    8A'  +    3A"  )


 NUCLEAR REPULSION ENERGY   37.42306171


 Eigenvalues of metric

         1 0.135E-02 0.193E-02 0.396E-02 0.518E-02 0.107E-01 0.121E-01 0.148E-01 0.234E-01
         2 0.193E-02 0.107E-01 0.234E-01 0.331E-01 0.409E-01 0.520E-01 0.799E-01 0.110E+00


 Contracted 2-electron integrals neglected if value below      1.0D-11
 AO integral compression algorithm  1   Integral accuracy      1.0D-11

     34.341 MB (compressed) written to integral file ( 49.5%)


 NUMBER OF SORTED TWO-ELECTRON INTEGRALS:    7062991.     BUFFER LENGTH:  32768
 NUMBER OF SEGMENTS:   1  SEGMENT LENGTH:    7062991      RECORD LENGTH: 524288

 Memory used in sort:       7.62 MW

 SORT1 READ     8636277. AND WROTE     6411315. INTEGRALS IN     19 RECORDS. CPU TIME:     0.10 SEC, REAL TIME:     0.22 SEC
 SORT2 READ     6411315. AND WROTE     7062991. INTEGRALS IN    131 RECORDS. CPU TIME:     0.20 SEC, REAL TIME:     0.26 SEC

 FILE SIZES:   FILE 1:    64.7 MBYTE,  FILE 4:    79.8 MBYTE,   TOTAL:    144.4 MBYTE

 OPERATOR DM      FOR CENTER  0  COORDINATES:    0.000000    0.000000    0.000000


 **********************************************************************************************************************************
 DATASETS  * FILE   NREC   LENGTH (MB)   RECORD NAMES
              1      19       56.12       500      610      700      900      950      970     1000      129      960     1100   
                                          VAR    BASINP    GEOM    SYMINP    ZMAT    AOBASIS   BASIS     P2S    ABASIS      S 
                                         1400     1410     1200     1210     1080     1600     1650     1300     1700   
                                           T        V       H0       H01     AOSYM     SMH    MOLCAS    ERIS     OPER   

 PROGRAMS   *        TOTAL       INT
 CPU TIMES  *         1.64      1.51
 REAL TIME  *         3.00 SEC
 DISK USED  *       138.15 MB
 **********************************************************************************************************************************


 Program * Restricted Hartree-Fock

 Orbital guess generated from atomic densities. Full valence occupancy:   10   3

 Initial occupancy:   7   2

 NELEC=   18   SYM=1   MS2= 0   THRE=1.0D-08   THRD=3.2D-06   THRG=3.2D-06  HFMA2=F  DIIS_START=2   DIIS_MAX=10   DIIS_INCORE=F

 Level shifts:    0.00 (CLOSED)    0.00 (OPEN)    0.30 (GAP_MIN)

 ITER           ETOT              DE          GRAD        DDIFF     DIIS  NEXP   TIME(IT)  TIME(TOT)  DIAG
   1     -139.06908709    -139.06908709     0.00D+00     0.11D+00     0     0       0.05      0.10    start
   2     -139.08933574      -0.02024866     0.79D-02     0.92D-02     1     0       0.05      0.15    diag
   3     -139.09416605      -0.00483031     0.43D-02     0.33D-02     2     0       0.06      0.21    diag
   4     -139.09450724      -0.00034119     0.81D-03     0.87D-03     3     0       0.05      0.26    diag
   5     -139.09452713      -0.00001988     0.17D-03     0.24D-03     4     0       0.06      0.32    diag
   6     -139.09452808      -0.00000095     0.36D-04     0.60D-04     5     0       0.05      0.37    diag
   7     -139.09452813      -0.00000005     0.83D-05     0.15D-04     6     0       0.05      0.42    diag
   8     -139.09452814      -0.00000000     0.20D-05     0.35D-05     7     0       0.05      0.47    fixocc
   9     -139.09452814      -0.00000000     0.45D-06     0.96D-06     8     0       0.04      0.51    diag
  10     -139.09452814      -0.00000000     0.63D-07     0.11D-06     0     0       0.06      0.57    diag/orth

 Final occupancy:   7   2

 !RHF STATE 1.1 Energy               -139.094528135725
  RHF One-electron energy            -266.582354801931
  RHF Two-electron energy              90.064764953167
  RHF Kinetic energy                  138.985736315828
  RHF Nuclear energy                   37.423061713039
  RHF Virial quotient                  -1.000782755287

 !RHF STATE 1.1 Dipole moment           0.00000000     0.00000000     0.80029636
 Dipole moment /Debye                   0.00000001     0.00000000     2.03415046

 Orbital energies:

           1.1          2.1          3.1          4.1          5.1          6.1          7.1          8.1          9.1
    -26.271488   -11.303390    -1.583403    -0.953493    -0.693115    -0.671403    -0.528504     0.143738     0.214480

           1.2          2.2          3.2          4.2
     -0.693115    -0.528504     0.214480     0.380526


 HOMO      7.1    -0.528504 =     -14.3813eV
 LUMO      8.1     0.143738 =       3.9113eV
 LUMO-HOMO         0.672242 =      18.2926eV

 Orbitals saved in record  2100.2


 **********************************************************************************************************************************
 DATASETS  * FILE   NREC   LENGTH (MB)   RECORD NAMES
              1      19       56.12       500      610      700      900      950      970     1000      129      960     1100   
                                          VAR    BASINP    GEOM    SYMINP    ZMAT    AOBASIS   BASIS     P2S    ABASIS      S 
                                         1400     1410     1200     1210     1080     1600     1650     1300     1700   
                                           T        V       H0       H01     AOSYM     SMH    MOLCAS    ERIS     OPER   

              2       4        0.54       700     1000      520     2100   
                                         GEOM     BASIS   MCVARS     RHF  

 PROGRAMS   *        TOTAL    HF-SCF       INT
 CPU TIMES  *         2.21      0.57      1.51
 REAL TIME  *         3.71 SEC
 DISK USED  *       138.15 MB
 **********************************************************************************************************************************


 PROGRAM * PAPT (Closed-shell)     Authors: C. Hampel, H.-J. Werner, 1991, P.J. Knowles, 2021


 Convergence thresholds:  THRVAR = 1.00D-08  THRDEN = 1.00D-06

 Number of core orbitals:           2 (   2   0 )
 Number of closed-shell orbitals:   7 (   5   2 )
 Number of external orbitals:      93 (  57  36 )

 Molecular orbitals read from record     2100.2  Type=RHF/CANONICAL  

 Number of N-1 electron functions:               7
 Number of N-2 electron functions:              28
 Number of singly external CSFs:               357
 Number of doubly external CSFs:            107268
 Total number of CSFs:                      107626

 Length of J-op  integral file:               0.00 MB
 Length of K-op  integral file:               0.44 MB

 Integral transformation finished. Total CPU:   0.10 sec, npass=  1  Memory used:   0.25 MW

 Reference energy:                   -139.09452814

                        CORR.ENERGY   TOTAL ENERGY   ENERGY CHANGE
 MP2:                   -0.43403164  -139.52855977    -0.43403164

 SCS-MP2 correlation energy:           -0.43272180   (PS=  1.200000  PT=  0.333333)
 SCS-MP2 total energy:               -139.52724994
 Iteration:   1     0.2482D+00
 Iteration:   2     0.2716D+00
 Iteration:   3     0.1087D+00
 Iteration:   4     0.6631D-01
 Iteration:   5     0.4524D+00
 Iteration:   6     0.3119D-01
 Iteration:   7     0.3217D-01
 Iteration:   8     0.1962D-01
 Iteration:   9     0.4940D-02
 Iteration:  10     0.1157D-01
 Iteration:  11     0.1298D-02
 Iteration:  12     0.8619D-03
 Iteration:  13     0.3494D-02
 Iteration:  14     0.3421D-03
 Iteration:  15     0.9930D-03
 Iteration:  16     0.1099D-03
 Iteration:  17     0.6288D-04
 PAPT operator written to  7000.1
 PAPT orbitals and eigenvalues written to  7000.2

 MP3(D):                -0.44614576  -139.54067390    -0.01211412



 RESULTS
 =======

  Reference energy                   -139.094528135726
  MP3 singlet pair energy              -0.304171039983
  MP3 triplet pair energy              -0.141974720090
  MP3 correlation energy               -0.446145760073

 !MP3 total energy                   -139.540673895799

 Timing summary (sec):

 STEP                 CPU(USER)    SYS     CPU(TOT)    WALL
 Transformation          0.10      0.01      0.11      0.18
 CCSD iterations         3.00      0.04      3.04      0.69

 Program statistics:

 Available memory in ccsd:               805306165
 Min. memory needed in ccsd:                357393
 Max. memory used in ccsd:                  443172
 Max. memory used in cckext:                519475 ( 1 integral passes)



 **********************************************************************************************************************************
 DATASETS  * FILE   NREC   LENGTH (MB)   RECORD NAMES
              1      21       57.93       500      610      700      900      950      970     1000      129      960     1100   
                                          VAR    BASINP    GEOM    SYMINP    ZMAT    AOBASIS   BASIS     P2S    ABASIS      S 
                                         1400     1410     1200     1210     1080     1600     1650     1300     1700     1380   
                                           T        V       H0       H01     AOSYM     SMH    MOLCAS    ERIS     OPER     JKOP   
                                         7000   
                                        PAPT AO    

              2       5        0.77       700     1000      520     2100     7000   
                                         GEOM     BASIS   MCVARS     RHF     PAPT   

 PROGRAMS   *        TOTAL      PAPT    HF-SCF       INT
 CPU TIMES  *         2.82      0.61      0.57      1.51
 REAL TIME  *         4.62 SEC
 DISK USED  *       138.15 MB
 **********************************************************************************************************************************


 PROGRAM * MP4 (Closed-shell)     Authors: C. Hampel, H.-J. Werner, 1991, M. Deegan, P.J. Knowles, 1992


 Convergence thresholds:  THRVAR = 1.00D-08  THRDEN = 1.00D-06

 MP4(T)     terms to be evaluated (factor= 0.000)


 Number of core orbitals:           2 (   2   0 )
 Number of closed-shell orbitals:   7 (   5   2 )
 Number of external orbitals:      93 (  57  36 )

 Molecular orbitals read from record     7000.2  Type=PAPT/CANONICAL (state 1.1)

 Number of N-1 electron functions:               7
 Number of N-2 electron functions:              28
 Number of singly external CSFs:               357
 Number of doubly external CSFs:            107268
 Total number of CSFs:                      107626

 Length of J-op  integral file:               0.00 MB
 Length of K-op  integral file:               0.44 MB

 Memory could be reduced to 4.08 Mwords without degradation in triples

 Integral transformation finished. Total CPU:   0.22 sec, npass=  1  Memory used:   1.56 MW
 Orbital energies read from record       7000.2  Type=PAPT/CANONICAL (state 1.1)

 Reference energy:                   -139.09452814

                        CORR.ENERGY   TOTAL ENERGY   ENERGY CHANGE
 MP2:                   -0.45068557  -139.54521371    -0.45068557

 SCS-MP2 correlation energy:           -0.45163173   (PS=  1.200000  PT=  0.333333)
 SCS-MP2 total energy:               -139.54615987

 MP3(D):                -0.45088099  -139.54540912    -0.00019541
 MP4(DQ):               -0.44740460  -139.54193273     0.00347639
 MP4(SDQ):              -0.45052313  -139.54505126    -0.00311853

 Norm of t1 vector:      0.04179919      S-energy:    -0.00311853      T1 diagnostic:  0.00789930

 Largest off-diagonal element in interal  block of Fock matrix:  0.13D+00
 Largest off-diagonal element in external block of Fock matrix:  0.52D+00


 Total CPU time for triples:      1.62 sec


 RESULTS
 =======

  Reference energy                   -139.094528135726
  MP4(SDQ) singlet pair energy         -0.305144429976
  MP4(SDQ) triplet pair energy         -0.142260165877
  MP4(SDQ) correlation energy          -0.450523127894

  Triples contribution                 -0.014566801954
  Total correlation energy             -0.465089929848

  MP4(SDQ) total energy              -139.545051263620
 !MP4(SDTQ) total energy             -139.559618065573

 Timing summary (sec):

 STEP                 CPU(USER)    SYS     CPU(TOT)    WALL
 Transformation          0.28      0.04      0.32      0.58
 CCSD iterations         3.41      0.01      3.42      0.29
 Triples                 1.62      0.07      1.69      1.73

 Program statistics:

 Available memory in ccsd:               805306165
 Min. memory needed in ccsd:                357393
 Max. memory used in ccsd:                  443172
 Max. memory used in cckext:                519475 ( 1 integral passes)



 **********************************************************************************************************************************
 DATASETS  * FILE   NREC   LENGTH (MB)   RECORD NAMES
              1      22       68.85       500      610      700      900      950      970     1000      129      960     1100   
                                          VAR    BASINP    GEOM    SYMINP    ZMAT    AOBASIS   BASIS     P2S    ABASIS      S 
                                         1400     1410     1200     1210     1080     1600     1650     1300     1700     1380   
                                           T        V       H0       H01     AOSYM     SMH    MOLCAS    ERIS     OPER     JKOP   
                                         7000     1380(1)
                                        PAPT AO   JKOP   

              2       5        0.77       700     1000      520     2100     7000   
                                         GEOM     BASIS   MCVARS     RHF     PAPT   

 PROGRAMS   *        TOTAL       MP4      PAPT    HF-SCF       INT
 CPU TIMES  *         5.03      2.21      0.61      0.57      1.51
 REAL TIME  *         7.34 SEC
 DISK USED  *       138.15 MB
 **********************************************************************************************************************************

 Dump information in style XML to xml output                                                                      

 Orbitals will not be exported.

 **********************************************************************************************************************************

 MP4/cc-pVTZ energy=   -139.559618065573

             MP4            PAPT          HF-SCF
   -139.55961807   -139.54067390   -139.09452814
 **********************************************************************************************************************************
 Molpro calculation terminated
