
 Working directory              : /home/jovyan/scratch/molpro.wCRQwKZdtF/
 Global scratch directory       : /home/jovyan/scratch/molpro.wCRQwKZdtF/
 Wavefunction directory         : /home/jovyan/wfu/
 Main file repository           : /home/jovyan/scratch/molpro.wCRQwKZdtF/

 id        : cardiff

 Nodes                nprocs
 jupyter-c-2efrancisan    1
 GA implementation: MPI file
 GA implementation (serial work in mppx): MPI file

 Using customized tuning parameters: mindgm=1; mindgv=20; mindgc=4; mindgr=1; noblas=0; minvec=7
 default implementation of scratch files=df  


 Variables initialized (1031), CPU time= 0.00 sec
 
 
 
 geometry={
            4
     N         -1.04378426     -0.09487228      0.00000000
     H         -0.65570104     -1.04047940      0.00000000
     H         -0.65567745      0.37796757      0.81892116
     H         -0.65567745      0.37796757     -0.81892116
 }
 basis=cc-pVDZ
 angstrom
 
 
 hf
 
 
 
 {put,xml;noorbitals,nobasis}
 Commands initialized (841), CPU time= 0.01 sec, 704 directives.
 Default parameters read. Elapsed time= 0.08 sec

 Checking input...
 Passed
1


                                         ***  PROGRAM SYSTEM MOLPRO  ***
                                       Copyright, TTI GmbH Stuttgart, 2015
                                    Version 2023.1 linked Mon Jun  5 13:27:10 2023


 **********************************************************************************************************************************
 LABEL *                                                                                                                                                                 
  (16 PROC) 64 bit serial version                                                        DATE: 03-Aug-23          TIME: 10:11:10  
 **********************************************************************************************************************************

 SHA1:             9738a14712571edd23541b6d7c4f3a3d766f8287
 **********************************************************************************************************************************

 Memory per process:       805 MW
 Total memory per node:   1074 MW
 Total GA space:           268 MW

 GA preallocation disabled
 GA check enabled

 Geometry recognized as XYZ


 Variable memory set to 805.3 MW

 SETTING BASIS          =    CC-PVDZ


 Recomputing integrals since basis changed


 Using spherical harmonics

 Library entry N      S cc-pVDZ              selected for orbital group  1
 Library entry N      P cc-pVDZ              selected for orbital group  1
 Library entry N      D cc-pVDZ              selected for orbital group  1
 Library entry H      S cc-pVDZ              selected for orbital group  2
 Library entry H      P cc-pVDZ              selected for orbital group  2


 PROGRAM * SEWARD (Integral evaluation for generally contracted gaussian basis sets)     Author: Roland Lindh, 1990

 Geometry written to block  1 of record 700


 Point group  Cs  



 ATOMIC COORDINATES

 NR  ATOM    CHARGE       X              Y              Z

   1  N       7.00   -1.972466385   -0.179282626    0.000000000
   2  H       1.00   -1.239095385   -1.966221104    0.000000000
   3  H       1.00   -1.239050807    0.714255191    1.547536710
   4  H       1.00   -1.239050807    0.714255191   -1.547536710

 Bond lengths in Bohr (Angstrom)

 1-2  1.931575043  1-3  1.931625769  1-4  1.931625769
     ( 1.022145494)     ( 1.022172337)     ( 1.022172337)

 Bond angles

  2-1-3  106.48634507   2-1-4  106.48634507   3-1-4  106.48157974

 NUCLEAR CHARGE:                   10
 NUMBER OF PRIMITIVE AOS:          48
 NUMBER OF SYMMETRY AOS:           47
 NUMBER OF CONTRACTIONS:           29   (   19A'  +   10A"  )
 NUMBER OF INNER CORE ORBITALS:     0   (    0A'  +    0A"  )
 NUMBER OF OUTER CORE ORBITALS:     1   (    1A'  +    0A"  )
 NUMBER OF VALENCE ORBITALS:        7   (    5A'  +    2A"  )


 NUCLEAR REPULSION ENERGY   11.84103699

 Eigenvalues of metric

         1 0.161E-01 0.419E-01 0.469E-01 0.779E-01 0.150E+00 0.152E+00 0.185E+00 0.417E+00
         2 0.419E-01 0.779E-01 0.150E+00 0.417E+00 0.624E+00 0.862E+00 0.110E+01 0.125E+01


 Contracted 2-electron integrals neglected if value below      1.0D-11
 AO integral compression algorithm  1   Integral accuracy      1.0D-11

     0.524 MB (compressed) written to integral file ( 84.0%)


 NUMBER OF SORTED TWO-ELECTRON INTEGRALS:      51035.     BUFFER LENGTH:  32768
 NUMBER OF SEGMENTS:   1  SEGMENT LENGTH:      51035      RECORD LENGTH: 524288

 Memory used in sort:       0.61 MW

 SORT1 READ       69826. AND WROTE       48040. INTEGRALS IN      1 RECORDS. CPU TIME:     0.00 SEC, REAL TIME:     0.16 SEC
 SORT2 READ       48040. AND WROTE       51035. INTEGRALS IN      2 RECORDS. CPU TIME:     0.01 SEC, REAL TIME:     0.01 SEC

 FILE SIZES:   FILE 1:    30.6 MBYTE,  FILE 4:     4.3 MBYTE,   TOTAL:     34.8 MBYTE

 OPERATOR DM      FOR CENTER  0  COORDINATES:    0.000000    0.000000    0.000000


 **********************************************************************************************************************************
 DATASETS  * FILE   NREC   LENGTH (MB)   RECORD NAMES
              1      19       28.91       500      610      700      900      950      970     1000      129      960     1100   
                                          VAR    BASINP    GEOM    SYMINP    ZMAT    AOBASIS   BASIS     P2S    ABASIS      S 
                                         1400     1410     1200     1210     1080     1600     1650     1300     1700   
                                           T        V       H0       H01     AOSYM     SMH    MOLCAS    ERIS     OPER   

 PROGRAMS   *        TOTAL       INT
 CPU TIMES  *         0.55      0.42
 REAL TIME  *         3.38 SEC
 DISK USED  *        33.58 MB
 **********************************************************************************************************************************


 Program * Restricted Hartree-Fock

 Orbital guess generated from atomic densities. Full valence occupancy:    6   2

 Initial occupancy:   4   1

 NELEC=   10   SYM=1   MS2= 0   THRE=1.0D-08   THRD=3.2D-06   THRG=3.2D-06  HFMA2=F  DIIS_START=2   DIIS_MAX=10   DIIS_INCORE=F

 Level shifts:    0.00 (CLOSED)    0.00 (OPEN)    0.30 (GAP_MIN)

 ITER           ETOT              DE          GRAD        DDIFF     DIIS  NEXP   TIME(IT)  TIME(TOT)  DIAG
   1      -56.16929123     -56.16929123     0.00D+00     0.25D+00     0     0       0.00      0.01    start
   2      -56.19076756      -0.02147634     0.19D-01     0.39D-01     1     0       0.00      0.01    diag
   3      -56.19489566      -0.00412809     0.85D-02     0.13D-01     2     0       0.00      0.01    diag
   4      -56.19511656      -0.00022091     0.14D-02     0.33D-02     3     0       0.00      0.01    diag
   5      -56.19512642      -0.00000986     0.30D-03     0.75D-03     4     0       0.00      0.01    diag
   6      -56.19512678      -0.00000036     0.47D-04     0.13D-03     5     0       0.00      0.01    diag
   7      -56.19512680      -0.00000002     0.10D-04     0.34D-04     6     0       0.00      0.01    diag
   8      -56.19512680      -0.00000000     0.19D-05     0.65D-05     7     0       0.01      0.02    fixocc
   9      -56.19512680      -0.00000000     0.37D-06     0.13D-05     8     0       0.00      0.02    diag
  10      -56.19512680      -0.00000000     0.36D-07     0.74D-07     0     0       0.00      0.02    diag/orth

 Final occupancy:   4   1

 !RHF STATE 1.1 Energy                -56.195126804406
  RHF One-electron energy             -99.450887553354
  RHF Two-electron energy              31.414723754410
  RHF Kinetic energy                   56.061620502303
  RHF Nuclear energy                   11.841036994538
  RHF Virial quotient                  -1.002381420674

 !RHF STATE 1.1 Dipole moment           0.66974700     0.00001043     0.00000000
 Dipole moment /Debye                   1.70232709     0.00002651     0.00000000

 Orbital energies:

           1.1          2.1          3.1          4.1          5.1          6.1
    -15.539663    -1.127255    -0.612260    -0.419305     0.185534     0.269363

           1.2          2.2          3.2
     -0.612238     0.269362     0.727223


 HOMO      4.1    -0.419305 =     -11.4099eV
 LUMO      5.1     0.185534 =       5.0486eV
 LUMO-HOMO         0.604839 =      16.4585eV

 Orbitals saved in record  2100.2


 **********************************************************************************************************************************
 DATASETS  * FILE   NREC   LENGTH (MB)   RECORD NAMES
              1      19       28.91       500      610      700      900      950      970     1000      129      960     1100   
                                          VAR    BASINP    GEOM    SYMINP    ZMAT    AOBASIS   BASIS     P2S    ABASIS      S 
                                         1400     1410     1200     1210     1080     1600     1650     1300     1700   
                                           T        V       H0       H01     AOSYM     SMH    MOLCAS    ERIS     OPER   

              2       4        0.43       700     1000      520     2100   
                                         GEOM     BASIS   MCVARS     RHF  

 PROGRAMS   *        TOTAL    HF-SCF       INT
 CPU TIMES  *         0.57      0.02      0.42
 REAL TIME  *         3.49 SEC
 DISK USED  *        33.58 MB
 **********************************************************************************************************************************

 Dump information in style XML to xml output                                                                      

 Orbitals will not be exported.

 **********************************************************************************************************************************

 HF/cc-pVDZ energy=    -56.195126804406

          HF-SCF
    -56.19512680
 **********************************************************************************************************************************
 Molpro calculation terminated
