
 Working directory              : /home/jovyan/scratch/molpro.esgCv9CbtX/
 Global scratch directory       : /home/jovyan/scratch/molpro.esgCv9CbtX/
 Wavefunction directory         : /home/jovyan/wfu/
 Main file repository           : /home/jovyan/scratch/molpro.esgCv9CbtX/

 id        : cardiff

 Nodes                nprocs
 jupyter-c-2efrancisan    1
 GA implementation: MPI file
 GA implementation (serial work in mppx): MPI file

 Using customized tuning parameters: mindgm=1; mindgv=20; mindgc=4; mindgr=1; noblas=0; minvec=7
 default implementation of scratch files=df  


 Variables initialized (1031), CPU time= 0.00 sec
 
 
 
 geometry={
 12
  4H2O (cyc) (Full point group S4)
  O -1.370265 -1.370265 0.001600
  H -1.508025 -0.396133 0.009614
  H -0.396133 1.508025 -0.009614
  H 1.876410 1.707325 -0.742395
  H -1.876410 -1.707325 -0.742395
  H -1.707325 1.876410 0.742395
  H 1.508025 0.396133 0.009614
  O 1.370265 1.370265 0.001600
  O -1.370265 1.370265 -0.001600
  H 0.396133 -1.508025 -0.009614
  O 1.370265 -1.370265 -0.001600
  H 1.707325 -1.876410 0.742395
 }
 basis=cc-pVDZ
 angstrom
 
 
 hf; papt;mp2
 
 
 
 {put,xml;noorbitals,nobasis}
 Commands initialized (841), CPU time= 0.01 sec, 704 directives.
 Default parameters read. Elapsed time= 0.08 sec

 Checking input...
 Passed
1


                                         ***  PROGRAM SYSTEM MOLPRO  ***
                                       Copyright, TTI GmbH Stuttgart, 2015
                                    Version 2023.1 linked Mon Jun  5 13:27:10 2023


 **********************************************************************************************************************************
 LABEL *                                                                                                                                                                 
  (16 PROC) 64 bit serial version                                                        DATE: 03-Aug-23          TIME: 13:08:15  
 **********************************************************************************************************************************

 SHA1:             9738a14712571edd23541b6d7c4f3a3d766f8287
 **********************************************************************************************************************************

 Memory per process:       805 MW
 Total memory per node:   1074 MW
 Total GA space:           268 MW

 GA preallocation disabled
 GA check enabled

 Geometry recognized as XYZ


 Variable memory set to 805.3 MW

 SETTING BASIS          =    CC-PVDZ


 Recomputing integrals since basis changed


 Using spherical harmonics

 Library entry O      S cc-pVDZ              selected for orbital group  1
 Library entry O      P cc-pVDZ              selected for orbital group  1
 Library entry O      D cc-pVDZ              selected for orbital group  1
 Library entry H      S cc-pVDZ              selected for orbital group  2
 Library entry H      P cc-pVDZ              selected for orbital group  2


 PROGRAM * SEWARD (Integral evaluation for generally contracted gaussian basis sets)     Author: Roland Lindh, 1990

 Geometry written to block  1 of record 700


 Point group  C2  



 ATOMIC COORDINATES

 NR  ATOM    CHARGE       X              Y              Z

   1  O       8.00   -2.589425568   -2.589425568    0.003023562
   2  O       8.00    2.589425568    2.589425568    0.003023562
   3  H       1.00   -2.849754239   -0.748582879    0.018167827
   4  H       1.00    2.849754239    0.748582879    0.018167827
   5  H       1.00   -0.748582879    2.849754239   -0.018167827
   6  H       1.00    0.748582879   -2.849754239   -0.018167827
   7  H       1.00    3.545900998    3.226376656   -1.402923226
   8  H       1.00   -3.545900998   -3.226376656   -1.402923226
   9  H       1.00   -3.226376656    3.545900998    1.402923226
  10  H       1.00    3.226376656   -3.545900998    1.402923226
  11  O       8.00   -2.589425568    2.589425568   -0.003023562
  12  O       8.00    2.589425568   -2.589425568   -0.003023562

 Bond lengths in Bohr (Angstrom)

  1- 3  1.859220851   1- 8  1.815829922   2- 4  1.859220851   2- 7  1.815829922   5-11  1.859220851
       ( 0.983857304)       ( 0.960895814)       ( 0.983857304)       ( 0.960895814)       ( 0.983857304)

  6-12  1.859220851   9-11  1.815829922  10-12  1.815829922
       ( 0.983857304)       ( 0.960895814)       ( 0.960895814)

 Bond angles

  3- 1- 8  106.25194421   4- 2- 7  106.25194421   5-11- 9  106.25194421   6-12-10  106.25194421

 NUCLEAR CHARGE:                   40
 NUMBER OF PRIMITIVE AOS:         164
 NUMBER OF SYMMETRY AOS:          160
 NUMBER OF CONTRACTIONS:           96   (   48A   +   48B   )
 NUMBER OF INNER CORE ORBITALS:     0   (    0A   +    0B   )
 NUMBER OF OUTER CORE ORBITALS:     4   (    2A   +    2B   )
 NUMBER OF VALENCE ORBITALS:       24   (   12A   +   12B   )


 NUCLEAR REPULSION ENERGY  141.36726119


 Eigenvalues of metric

         1 0.158E-01 0.169E-01 0.394E-01 0.429E-01 0.461E-01 0.479E-01 0.602E-01 0.771E-01
         2 0.158E-01 0.158E-01 0.408E-01 0.408E-01 0.448E-01 0.448E-01 0.704E-01 0.704E-01


 Contracted 2-electron integrals neglected if value below      1.0D-11
 AO integral compression algorithm  1   Integral accuracy      1.0D-11

     26.477 MB (compressed) written to integral file ( 47.4%)


 NUMBER OF SORTED TWO-ELECTRON INTEGRALS:    5533080.     BUFFER LENGTH:  32768
 NUMBER OF SEGMENTS:   1  SEGMENT LENGTH:    5533080      RECORD LENGTH: 524288

 Memory used in sort:       6.09 MW

 SORT1 READ     6943024. AND WROTE     5362540. INTEGRALS IN     16 RECORDS. CPU TIME:     0.10 SEC, REAL TIME:     0.23 SEC
 SORT2 READ     5362540. AND WROTE     5533080. INTEGRALS IN    101 RECORDS. CPU TIME:     0.19 SEC, REAL TIME:     0.21 SEC

 FILE SIZES:   FILE 1:    56.9 MBYTE,  FILE 4:    67.2 MBYTE,   TOTAL:    124.1 MBYTE

 OPERATOR DM      FOR CENTER  0  COORDINATES:    0.000000    0.000000    0.000000


 **********************************************************************************************************************************
 DATASETS  * FILE   NREC   LENGTH (MB)   RECORD NAMES
              1      19       49.70       500      610      700      900      950      970     1000      129      960     1100   
                                          VAR    BASINP    GEOM    SYMINP    ZMAT    AOBASIS   BASIS     P2S    ABASIS      S 
                                         1400     1410     1200     1210     1080     1600     1650     1300     1700   
                                           T        V       H0       H01     AOSYM     SMH    MOLCAS    ERIS     OPER   

 PROGRAMS   *        TOTAL       INT
 CPU TIMES  *         2.04      1.89
 REAL TIME  *         3.27 SEC
 DISK USED  *       118.84 MB
 **********************************************************************************************************************************


 Program * Restricted Hartree-Fock

 Orbital guess generated from atomic densities. Full valence occupancy:   14  14

 Initial occupancy:  10  10

 NELEC=   40   SYM=1   MS2= 0   THRE=1.0D-08   THRD=3.2D-06   THRG=3.2D-06  HFMA2=F  DIIS_START=2   DIIS_MAX=10   DIIS_INCORE=F

 Level shifts:    0.00 (CLOSED)    0.00 (OPEN)    0.30 (GAP_MIN)

 ITER           ETOT              DE          GRAD        DDIFF     DIIS  NEXP   TIME(IT)  TIME(TOT)  DIAG
   1     -304.03737495    -304.03737495     0.00D+00     0.17D+00     0     0       0.04      0.08    start
   2     -304.12740544      -0.09003049     0.13D-01     0.28D-01     1     0       0.05      0.13    diag
   3     -304.14986258      -0.02245714     0.66D-02     0.89D-02     2     0       0.05      0.18    diag
   4     -304.15066302      -0.00080045     0.90D-03     0.21D-02     3     0       0.04      0.22    diag
   5     -304.15071422      -0.00005120     0.19D-03     0.48D-03     4     0       0.04      0.26    diag
   6     -304.15071786      -0.00000364     0.44D-04     0.12D-03     5     0       0.05      0.31    diag
   7     -304.15071799      -0.00000013     0.81D-05     0.24D-04     6     0       0.05      0.36    diag
   8     -304.15071800      -0.00000000     0.15D-05     0.36D-05     7     0       0.04      0.40    fixocc
   9     -304.15071800      -0.00000000     0.41D-06     0.10D-05     8     0       0.04      0.44    diag
  10     -304.15071800      -0.00000000     0.71D-07     0.13D-06     0     0       0.05      0.49    diag/orth

 Final occupancy:  10  10

 !RHF STATE 1.1 Energy               -304.150717999291
  RHF One-electron energy            -701.899608766872
  RHF Two-electron energy             256.381629575134
  RHF Kinetic energy                  303.837204948588
  RHF Nuclear energy                  141.367261192447
  RHF Virial quotient                  -1.001031845494

 !RHF STATE 1.1 Dipole moment           0.00000000     0.00000000     0.00000000
 Dipole moment /Debye                   0.00000000     0.00000000     0.00000000

 Orbital energies:

           1.1          2.1          3.1          4.1          5.1          6.1          7.1          8.1          9.1         10.1
    -20.547991   -20.547982    -1.346725    -1.315823    -0.716320    -0.693940    -0.605623    -0.534267    -0.489466    -0.488691

          11.1         12.1
      0.173744     0.236253

           1.2          2.2          3.2          4.2          5.2          6.2          7.2          8.2          9.2         10.2
    -20.547987   -20.547987    -1.331161    -1.331161    -0.702887    -0.702887    -0.568994    -0.568994    -0.489646    -0.489646

          11.2         12.2
      0.212552     0.212552


 HOMO     10.1    -0.488691 =     -13.2980eV
 LUMO     11.1     0.173744 =       4.7278eV
 LUMO-HOMO         0.662435 =      18.0258eV

 Orbitals saved in record  2100.2


 **********************************************************************************************************************************
 DATASETS  * FILE   NREC   LENGTH (MB)   RECORD NAMES
              1      19       49.70       500      610      700      900      950      970     1000      129      960     1100   
                                          VAR    BASINP    GEOM    SYMINP    ZMAT    AOBASIS   BASIS     P2S    ABASIS      S 
                                         1400     1410     1200     1210     1080     1600     1650     1300     1700   
                                           T        V       H0       H01     AOSYM     SMH    MOLCAS    ERIS     OPER   

              2       4        0.64       700     1000      520     2100   
                                         GEOM     BASIS   MCVARS     RHF  

 PROGRAMS   *        TOTAL    HF-SCF       INT
 CPU TIMES  *         2.54      0.51      1.89
 REAL TIME  *         3.88 SEC
 DISK USED  *       118.84 MB
 **********************************************************************************************************************************


 PROGRAM * PAPT (Closed-shell)     Authors: C. Hampel, H.-J. Werner, 1991, P.J. Knowles, 2021


 Convergence thresholds:  THRVAR = 1.00D-08  THRDEN = 1.00D-06

 Number of core orbitals:           4 (   2   2 )
 Number of closed-shell orbitals:  16 (   8   8 )
 Number of external orbitals:      76 (  38  38 )

 Molecular orbitals read from record     2100.2  Type=RHF/CANONICAL  

 Number of N-1 electron functions:              16
 Number of N-2 electron functions:             136
 Number of singly external CSFs:               608
 Number of doubly external CSFs:            370272
 Total number of CSFs:                      370881

 Length of J-op  integral file:               0.00 MB
 Length of K-op  integral file:               0.38 MB

 Integral transformation finished. Total CPU:   0.14 sec, npass=  1  Memory used:   0.82 MW

 Reference energy:                   -304.15071800

                        CORR.ENERGY   TOTAL ENERGY   ENERGY CHANGE
 MP2:                   -0.82569375  -304.97641175    -0.82569375

 SCS-MP2 correlation energy:           -0.80721885   (PS=  1.200000  PT=  0.333333)
 SCS-MP2 total energy:               -304.95793685
 Iteration:   1     0.2081D+00
 Iteration:   2     0.3517D+00
 Iteration:   3     0.1001D+00
 Iteration:   4     0.3658D-01
 Iteration:   5     0.7259D-01
 Iteration:   6     0.7724D-02
 Iteration:   7     0.7293D-02
 Iteration:   8     0.7545D-02
 Iteration:   9     0.1891D-02
 Iteration:  10     0.1041D-01
 Iteration:  11     0.4580D-03
 Iteration:  12     0.7599D-03
 Iteration:  13     0.2145D-03
 Iteration:  14     0.1383D-03
 Iteration:  15     0.9539D-04
 PAPT operator written to  7000.1
 PAPT orbitals and eigenvalues written to  7000.2

 MP3(D):                -0.84837915  -304.99909715    -0.02268540



 RESULTS
 =======

  Reference energy                   -304.150717999291
  MP3 singlet pair energy              -0.555349208212
  MP3 triplet pair energy              -0.293029941047
  MP3 correlation energy               -0.848379149259

 !MP3 total energy                   -304.999097148550

 Timing summary (sec):

 STEP                 CPU(USER)    SYS     CPU(TOT)    WALL
 Transformation          0.16      0.03      0.19      0.22
 CCSD iterations         4.36      0.03      4.39      1.65

 Program statistics:

 Available memory in ccsd:               805305334
 Min. memory needed in ccsd:               1012315
 Max. memory used in ccsd:                 1331963
 Max. memory used in cckext:               1428290 ( 1 integral passes)



 **********************************************************************************************************************************
 DATASETS  * FILE   NREC   LENGTH (MB)   RECORD NAMES
              1      21       56.99       500      610      700      900      950      970     1000      129      960     1100   
                                          VAR    BASINP    GEOM    SYMINP    ZMAT    AOBASIS   BASIS     P2S    ABASIS      S 
                                         1400     1410     1200     1210     1080     1600     1650     1300     1700     1380   
                                           T        V       H0       H01     AOSYM     SMH    MOLCAS    ERIS     OPER     JKOP   
                                         7000   
                                        PAPT AO    

              2       5        0.85       700     1000      520     2100     7000   
                                         GEOM     BASIS   MCVARS     RHF     PAPT   

 PROGRAMS   *        TOTAL      PAPT    HF-SCF       INT
 CPU TIMES  *         4.33      1.79      0.51      1.89
 REAL TIME  *         5.79 SEC
 DISK USED  *       118.84 MB
 **********************************************************************************************************************************


 PROGRAM * MP2 (Closed-shell)     Authors: C. Hampel, H.-J. Werner, 1991, M. Deegan, P.J. Knowles, 1992


 Convergence thresholds:  THRVAR = 1.00D-08  THRDEN = 1.00D-06

 Number of core orbitals:           4 (   2   2 )
 Number of closed-shell orbitals:  16 (   8   8 )
 Number of external orbitals:      76 (  38  38 )

 Molecular orbitals read from record     7000.2  Type=PAPT/CANONICAL (state 1.1)

 Number of N-1 electron functions:              16
 Number of N-2 electron functions:             136
 Number of singly external CSFs:               608
 Number of doubly external CSFs:            370272
 Total number of CSFs:                      370881

 Length of J-op  integral file:               0.00 MB
 Length of K-op  integral file:               0.38 MB

 Integral transformation finished. Total CPU:   0.14 sec, npass=  1  Memory used:   0.82 MW
 Orbital energies read from record       7000.2  Type=PAPT/CANONICAL (state 1.1)

 Memory needed for MP2:                      0.02 MW

 SCS-MP2 correlation energy:           -0.835759582093   (PS=  1.200000  PT=  0.333333)
 SCS-MP2 total energy:               -304.986477581384


  Reference energy                   -304.150717999291
  MP2 singlet pair energy              -0.528233123945
  MP2 triplet pair energy              -0.324449732184
  MP2 correlation energy               -0.852682856129

 !MP2 total energy                   -305.003400855420


 **********************************************************************************************************************************
 DATASETS  * FILE   NREC   LENGTH (MB)   RECORD NAMES
              1      21       56.99       500      610      700      900      950      970     1000      129      960     1100   
                                          VAR    BASINP    GEOM    SYMINP    ZMAT    AOBASIS   BASIS     P2S    ABASIS      S 
                                         1400     1410     1200     1210     1080     1600     1650     1300     1700     1380   
                                           T        V       H0       H01     AOSYM     SMH    MOLCAS    ERIS     OPER     JKOP   
                                         7000   
                                        PAPT AO    

              2       5        0.85       700     1000      520     2100     7000   
                                         GEOM     BASIS   MCVARS     RHF     PAPT   

 PROGRAMS   *        TOTAL       MP2      PAPT    HF-SCF       INT
 CPU TIMES  *         4.62      0.28      1.79      0.51      1.89
 REAL TIME  *         6.22 SEC
 DISK USED  *       118.84 MB
 **********************************************************************************************************************************

 Dump information in style XML to xml output                                                                      

 Orbitals will not be exported.

 **********************************************************************************************************************************

 MP2/cc-pVDZ energy=   -305.003400855420

             MP2            PAPT          HF-SCF
   -305.00340086   -304.99909715   -304.15071800
 **********************************************************************************************************************************
 Molpro calculation terminated
