
 Working directory              : /home/jovyan/scratch/molpro.ZrkQGdElyj/
 Global scratch directory       : /home/jovyan/scratch/molpro.ZrkQGdElyj/
 Wavefunction directory         : /home/jovyan/wfu/
 Main file repository           : /home/jovyan/scratch/molpro.ZrkQGdElyj/

 id        : cardiff

 Nodes                nprocs
 jupyter-c-2efrancisan    1
 GA implementation: MPI file
 GA implementation (serial work in mppx): MPI file

 Using customized tuning parameters: mindgm=1; mindgv=20; mindgc=4; mindgr=1; noblas=0; minvec=7
 default implementation of scratch files=df  


 Variables initialized (1031), CPU time= 0.00 sec
 
 
 
 geometry={
           13
     C         -0.01452154     -0.75798489      1.30942047
     C         -0.01452154     -0.75798489     -1.30942047
     C         -0.01452154      0.65683562      1.21164043
     C         -0.01452154      0.65683562     -1.21164043
     C         -0.17284160      1.33447586      0.00000000
     H          0.46798863     -1.05717499      0.00000000
     H          0.48511863     -1.18468504      2.18168078
     H          0.48511863     -1.18468504     -2.18168078
     H         -0.92708187     -1.30284508      1.06870038
     H         -0.92708187     -1.30284508     -1.06870038
     H          0.37512860      1.24016583      2.04603073
     H          0.37512860      1.24016583     -2.04603073
     H         -0.10339158      2.41972625      0.00000000
 }
 basis=cc-pVTZ
 angstrom
 
 
 hf; ccsd
 
 
 
 {put,xml;noorbitals,nobasis}
 Commands initialized (841), CPU time= 0.02 sec, 704 directives.
 Default parameters read. Elapsed time= 0.08 sec

 Checking input...
 Passed
1


                                         ***  PROGRAM SYSTEM MOLPRO  ***
                                       Copyright, TTI GmbH Stuttgart, 2015
                                    Version 2023.1 linked Mon Jun  5 13:27:10 2023


 **********************************************************************************************************************************
 LABEL *                                                                                                                                                                 
  (16 PROC) 64 bit serial version                                                        DATE: 03-Aug-23          TIME: 11:34:12  
 **********************************************************************************************************************************

 SHA1:             9738a14712571edd23541b6d7c4f3a3d766f8287
 **********************************************************************************************************************************

 Memory per process:       805 MW
 Total memory per node:   1074 MW
 Total GA space:           268 MW

 GA preallocation disabled
 GA check enabled

 Geometry recognized as XYZ


 Variable memory set to 805.3 MW

 SETTING BASIS          =    CC-PVTZ


 Recomputing integrals since basis changed


 Using spherical harmonics

 Library entry C      S cc-pVTZ              selected for orbital group  1
 Library entry C      P cc-pVTZ              selected for orbital group  1
 Library entry C      D cc-pVTZ              selected for orbital group  1
 Library entry C      F cc-pVTZ              selected for orbital group  1
 Library entry H      S cc-pVTZ              selected for orbital group  2
 Library entry H      P cc-pVTZ              selected for orbital group  2
 Library entry H      D cc-pVTZ              selected for orbital group  2


 PROGRAM * SEWARD (Integral evaluation for generally contracted gaussian basis sets)     Author: Roland Lindh, 1990

 Geometry written to block  1 of record 700


 Point group  Cs  



 ATOMIC COORDINATES

 NR  ATOM    CHARGE       X              Y              Z

   1  C       6.00   -0.027441734   -1.432383849    2.474446070
   2  C       6.00   -0.027441734   -1.432383849   -2.474446070
   3  C       6.00   -0.027441734    1.241239431    2.289668574
   4  C       6.00   -0.027441734    1.241239431   -2.289668574
   5  C       6.00   -0.326623287    2.521793895    0.000000000
   6  H       1.00    0.884370340   -1.997771197    0.000000000
   7  H       1.00    0.916741349   -2.238730270    4.122779166
   8  H       1.00    0.916741349   -2.238730270   -4.122779166
   9  H       1.00   -1.751930829   -2.462020384    2.019551027
  10  H       1.00   -1.751930829   -2.462020384   -2.019551027
  11  H       1.00    0.708890316    2.343573768    3.866437722
  12  H       1.00    0.708890316    2.343573768   -3.866437722
  13  H       1.00   -0.195381770    4.572619909    0.000000000

 Bond lengths in Bohr (Angstrom)

 1-3  2.680000777  1-6  2.697025670  1-7  2.063656521  1-9  2.059355126  2-4  2.680000777
     ( 1.418195336)     ( 1.427204522)     ( 1.092040002)     ( 1.089763802)     ( 1.418195336)

  2- 6  2.697025670   2- 8  2.063656521   2-10  2.059355126   3- 5  2.640437751   3-11  2.059982239
       ( 1.427204522)       ( 1.092040002)       ( 1.089763802)       ( 1.397259485)       ( 1.090095656)

  4- 5  2.640437751   4-12  2.059982239   5-13  2.055021089
       ( 1.397259485)       ( 1.090095656)       ( 1.087470328)

 Bond angles

  1- 3- 5  122.92983423   1- 3-11  118.75538171   1- 6- 2  133.11857628   2- 4- 5  122.92983423

  2- 4-12  118.75538171   3- 1- 6   98.38812662   3- 1- 7  116.41551821   3- 1- 9  118.91820303

  3- 5- 4  120.25937359   3- 5-13  118.47347191   4- 2- 6   98.38812662   4- 2- 8  116.41551821

  4- 2-10  118.91820303   4- 5-13  118.47347191   5- 3-11  116.40579220   5- 4-12  116.40579220

  6- 1- 7  119.75102425   6- 1- 9   88.60364094   6- 2- 8  119.75102425   6- 2-10   88.60364094

  7- 1- 9  111.35879906   8- 2-10  111.35879906

 NUCLEAR CHARGE:                   38
 NUMBER OF PRIMITIVE AOS:         371
 NUMBER OF SYMMETRY AOS:          338
 NUMBER OF CONTRACTIONS:          262   (  142A'  +  120A"  )
 NUMBER OF INNER CORE ORBITALS:     0   (    0A'  +    0A"  )
 NUMBER OF OUTER CORE ORBITALS:     5   (    3A'  +    2A"  )
 NUMBER OF VALENCE ORBITALS:       28   (   16A'  +   12A"  )


 NUCLEAR REPULSION ENERGY  164.15366010


 Eigenvalues of metric

         1 0.244E-03 0.826E-03 0.971E-03 0.128E-02 0.147E-02 0.157E-02 0.164E-02 0.194E-02
         2 0.453E-03 0.656E-03 0.105E-02 0.128E-02 0.134E-02 0.155E-02 0.191E-02 0.366E-02


 Contracted 2-electron integrals neglected if value below      1.0D-11
 AO integral compression algorithm  1   Integral accuracy      1.0D-11

     1269.301 MB (compressed) written to integral file ( 47.2%)


 NUMBER OF SORTED TWO-ELECTRON INTEGRALS:  299036551.     BUFFER LENGTH:  32768
 NUMBER OF SEGMENTS:  19  SEGMENT LENGTH:   15999503      RECORD LENGTH: 524288

 Memory used in sort:      16.56 MW

 SORT1 READ   336297689. AND WROTE   281955423. INTEGRALS IN    818 RECORDS. CPU TIME:     5.11 SEC, REAL TIME:     7.69 SEC
 SORT2 READ   281955423. AND WROTE   299036551. INTEGRALS IN   4842 RECORDS. CPU TIME:     5.74 SEC, REAL TIME:     7.14 SEC

 FILE SIZES:   FILE 1:  1301.2 MBYTE,  FILE 4:  3431.0 MBYTE,   TOTAL:   4732.2 MBYTE

 OPERATOR DM      FOR CENTER  0  COORDINATES:    0.000000    0.000000    0.000000


 **********************************************************************************************************************************
 DATASETS  * FILE   NREC   LENGTH (MB)   RECORD NAMES
              1      19     1153.05       500      610      700      900      950      970     1000      129      960     1100   
                                          VAR    BASINP    GEOM    SYMINP    ZMAT    AOBASIS   BASIS     P2S    ABASIS      S 
                                         1400     1410     1200     1210     1080     1600     1650     1300     1700   
                                           T        V       H0       H01     AOSYM     SMH    MOLCAS    ERIS     OPER   

 PROGRAMS   *        TOTAL       INT
 CPU TIMES  *        39.84     39.70
 REAL TIME  *        49.35 SEC
 DISK USED  *         4.41 GB
 **********************************************************************************************************************************


 Program * Restricted Hartree-Fock

 Orbital guess generated from atomic densities. Full valence occupancy:   19  14

 Initial occupancy:  11   8

 NELEC=   38   SYM=1   MS2= 0   THRE=1.0D-08   THRD=3.2D-06   THRG=3.2D-06  HFMA2=F  DIIS_START=2   DIIS_MAX=10   DIIS_INCORE=F

 Level shifts:    0.00 (CLOSED)    0.00 (OPEN)    0.30 (GAP_MIN)

 ITER           ETOT              DE          GRAD        DDIFF     DIIS  NEXP   TIME(IT)  TIME(TOT)  DIAG
   1     -193.87178105    -193.87178105     0.00D+00     0.63D-01     0     0       2.08      4.08    start
   2     -193.92410691      -0.05232586     0.39D-02     0.59D-02     1     0       2.12      6.20    diag
   3     -193.93092634      -0.00681943     0.16D-02     0.18D-02     2     0       2.07      8.27    diag
   4     -193.93211761      -0.00119127     0.55D-03     0.78D-03     3     0       2.10     10.37    diag
   5     -193.93218001      -0.00006239     0.14D-03     0.19D-03     4     0       2.10     12.47    diag
   6     -193.93219043      -0.00001043     0.42D-04     0.82D-04     5     0       2.09     14.56    diag
   7     -193.93219229      -0.00000186     0.16D-04     0.29D-04     6     0       2.10     16.66    diag
   8     -193.93219286      -0.00000057     0.68D-05     0.19D-04     7     0       2.08     18.74    fixocc
   9     -193.93219297      -0.00000011     0.27D-05     0.85D-05     8     0       2.12     20.86    diag
  10     -193.93219299      -0.00000002     0.12D-05     0.38D-05     9     0       2.10     22.96    diag/orth
  11     -193.93219299      -0.00000000     0.39D-06     0.10D-05     9     0       2.09     25.05    diag
  12     -193.93219299      -0.00000000     0.13D-06     0.21D-06     0     0       2.10     27.15    diag

 Final occupancy:  11   8

 !RHF STATE 1.1 Energy               -193.932192987927
  RHF One-electron energy            -585.435524308308
  RHF Two-electron energy             227.349671220048
  RHF Kinetic energy                  193.575965568260
  RHF Nuclear energy                  164.153660100333
  RHF Virial quotient                  -1.001840246121

 !RHF STATE 1.1 Dipole moment           0.08464527     0.01186151     0.00000000
 Dipole moment /Debye                   0.21514683     0.03014894     0.00000000

 Orbital energies:

           1.1          2.1          3.1          4.1          5.1          6.1          7.1          8.1          9.1         10.1
    -11.242771   -11.228328   -11.228060    -1.112792    -0.939371    -0.723915    -0.674401    -0.566997    -0.531924    -0.516394

          11.1         12.1         13.1
     -0.352943     0.142539     0.156814

           1.2          2.2          3.2          4.2          5.2          6.2          7.2          8.2          9.2         10.2
    -11.242733   -11.228323    -1.005068    -0.806583    -0.589433    -0.577351    -0.497892    -0.302816     0.101171     0.174357


 HOMO      8.2    -0.302816 =      -8.2400eV
 LUMO      9.2     0.101171 =       2.7530eV
 LUMO-HOMO         0.403986 =      10.9930eV

 Orbitals saved in record  2100.2


 **********************************************************************************************************************************
 DATASETS  * FILE   NREC   LENGTH (MB)   RECORD NAMES
              1      19     1153.05       500      610      700      900      950      970     1000      129      960     1100   
                                          VAR    BASINP    GEOM    SYMINP    ZMAT    AOBASIS   BASIS     P2S    ABASIS      S 
                                         1400     1410     1200     1210     1080     1600     1650     1300     1700   
                                           T        V       H0       H01     AOSYM     SMH    MOLCAS    ERIS     OPER   

              2       4        1.15       700     1000      520     2100   
                                         GEOM     BASIS   MCVARS     RHF  

 PROGRAMS   *        TOTAL    HF-SCF       INT
 CPU TIMES  *        67.00     27.15     39.70
 REAL TIME  *        79.84 SEC
 DISK USED  *         4.41 GB
 **********************************************************************************************************************************


 PROGRAM * CCSD (Closed-shell coupled cluster)     Authors: C. Hampel, H.-J. Werner, 1991, M. Deegan, P.J. Knowles, 1992


 Convergence thresholds:  THRVAR = 1.00D-08  THRDEN = 1.00D-06

 Number of core orbitals:           5 (   3   2 )
 Number of closed-shell orbitals:  14 (   8   6 )
 Number of external orbitals:     243 ( 131 112 )

 Molecular orbitals read from record     2100.2  Type=RHF/CANONICAL  

 Number of N-1 electron functions:              14
 Number of N-2 electron functions:             105
 Number of singly external CSFs:              1720
 Number of doubly external CSFs:           2895463
 Total number of CSFs:                     2897184

 Length of J-op  integral file:               0.00 MB
 Length of K-op  integral file:               2.44 MB
 Length of 3-ext integral record:             0.00 MB

 Integral transformation finished. Total CPU:  19.20 sec, npass=  1  Memory used:  53.19 MW

 Reference energy:                   -193.93219299

 MP2 singlet pair energy:              -0.55296735
 MP2 triplet pair energy:              -0.31344689
 MP2 correlation energy:               -0.86641424
 MP2 total energy:                   -194.79860723

 SCS-MP2 correlation energy:           -0.85859444   (PS=  1.200000  PT=  0.333333)
 SCS-MP2 total energy:               -194.79078743

 ITER.      SQ.NORM     CORR.ENERGY   TOTAL ENERGY   ENERGY CHANGE        DEN1      VAR(S)    VAR(P)  DIIS     TIME  TIME/IT
   1      1.30670211    -0.89140291  -194.82359590    -0.02498867    -0.00100080  0.36D-02  0.67D-02  1  1   101.33    15.43
   2      1.32904012    -0.89476340  -194.82695638    -0.00336049    -0.02152366  0.61D-04  0.84D-03  2  2   116.53    15.84
   3      1.33800078    -0.89488574  -194.82707873    -0.00012235    -0.00460987  0.39D-04  0.81D-04  3  3   131.62    15.86
   4      1.34161601    -0.89499144  -194.82718442    -0.00010569    -0.00109575  0.42D-05  0.14D-04  4  4   146.81    15.89
   5      1.34311278    -0.89503632  -194.82722931    -0.00004489    -0.00032182  0.19D-05  0.15D-05  5  5   161.96    15.90
   6      1.34355849    -0.89502792  -194.82722091     0.00000840    -0.00005755  0.30D-06  0.15D-06  6  6   177.17    15.93
   7      1.34364623    -0.89502731  -194.82722030     0.00000061    -0.00000213  0.12D-06  0.16D-07  6  2   192.31    15.94
   8      1.34367867    -0.89502712  -194.82722010     0.00000019    -0.00000315  0.22D-07  0.59D-08  6  1   207.43    15.93
   9      1.34369081    -0.89502703  -194.82722001     0.00000009    -0.00000019  0.32D-08  0.12D-08  6  3   222.58    15.96

 Norm of t1 vector:      0.08186933      S-energy:    -0.00000072      T1 diagnostic:  0.01094025
                                                                       D1 diagnostic:  0.03439408
                                                                       D2 diagnostic:  0.19982129 (internal)

 Doubles amplitudes (print threshold =  0.500E-01):

         I         J         SYM. A    SYM. B    A         B      T(IJ, AB)

        14        14         2         2         1         1     -0.09335634


 RESULTS
 =======

  Reference energy                   -193.932192987927
  CCSD singlet pair energy             -0.613749452732
  CCSD triplet pair energy             -0.281276856031
  CCSD correlation energy              -0.895027026966

 !CCSD total energy                  -194.827220014893

 Timing summary (sec):

 STEP                 CPU(USER)    SYS     CPU(TOT)    WALL
 Transformation         19.37      1.06     20.43     20.79
 CCSD iterations       203.38      5.80    209.18    143.84

 Program statistics:

 Available memory in ccsd:               805305573
 Min. memory needed in ccsd:               7275480
 Max. memory used in ccsd:                 9897905
 Max. memory used in cckext:               9943570 ( 9 integral passes)



 **********************************************************************************************************************************
 DATASETS  * FILE   NREC   LENGTH (MB)   RECORD NAMES
              1      20     1579.68       500      610      700      900      950      970     1000      129      960     1100   
                                          VAR    BASINP    GEOM    SYMINP    ZMAT    AOBASIS   BASIS     P2S    ABASIS      S 
                                         1400     1410     1200     1210     1080     1600     1650     1300     1700     1380   
                                           T        V       H0       H01     AOSYM     SMH    MOLCAS    ERIS     OPER     JKOP   

              2       4        1.15       700     1000      520     2100   
                                         GEOM     BASIS   MCVARS     RHF  

 PROGRAMS   *        TOTAL      CCSD    HF-SCF       INT
 CPU TIMES  *       222.54    155.55     27.15     39.70
 REAL TIME  *       244.53 SEC
 DISK USED  *         4.41 GB
 **********************************************************************************************************************************

 Dump information in style XML to xml output                                                                      

 Orbitals will not be exported.

 **********************************************************************************************************************************

 CCSD/cc-pVTZ energy=   -194.827220014893

            CCSD          HF-SCF
   -194.82722001   -193.93219299
 **********************************************************************************************************************************
 Molpro calculation terminated
