
 Working directory              : /home/jovyan/scratch/molpro.eOqApcPBE1/
 Global scratch directory       : /home/jovyan/scratch/molpro.eOqApcPBE1/
 Wavefunction directory         : /home/jovyan/wfu/
 Main file repository           : /home/jovyan/scratch/molpro.eOqApcPBE1/

 id        : cardiff

 Nodes                nprocs
 jupyter-c-2efrancisan    1
 GA implementation: MPI file
 GA implementation (serial work in mppx): MPI file

 Using customized tuning parameters: mindgm=1; mindgv=20; mindgc=4; mindgr=1; noblas=0; minvec=7
 default implementation of scratch files=df  


 Variables initialized (1031), CPU time= 0.01 sec
 
 
 
 geometry={
 16
  C    -1.4595330   -1.1910594    0.1600327
  C    -2.8488073   -0.9628516    0.0993153
  C    -3.1539559    0.3260872   -0.2060017
  S    -1.7497644    1.2592017   -0.4444530
  C    -0.7185117   -0.0716168   -0.1000887
  C     0.7185117    0.0716168   -0.1000887
  S     1.7497644   -1.2592017   -0.4444530
  C     3.1539559   -0.3260872   -0.2060017
  C     2.8488073    0.9628516    0.0993153
  C     1.4595330    1.1910594    0.1600327
  H    -1.0099655   -2.1339875    0.4228504
  H    -3.5907346   -1.7189217    0.2898715
  H    -4.1235319    0.7747989   -0.3122418
  H     4.1235319   -0.7747989   -0.3122418
  H     3.5907346    1.7189217    0.2898715
  H     1.0099655    2.1339875    0.4228504
 }
 basis=cc-pVTZ
 angstrom
 
 
 hf; ccsd(t)
 
 
 
 {put,xml;noorbitals,nobasis}
 Commands initialized (841), CPU time= 0.01 sec, 704 directives.
 Default parameters read. Elapsed time= 0.08 sec

 Checking input...
 Passed
1


                                         ***  PROGRAM SYSTEM MOLPRO  ***
                                       Copyright, TTI GmbH Stuttgart, 2015
                                    Version 2023.1 linked Mon Jun  5 13:27:10 2023


 **********************************************************************************************************************************
 LABEL *                                                                                                                                                                 
  (16 PROC) 64 bit serial version                                                        DATE: 04-Aug-23          TIME: 10:08:22  
 **********************************************************************************************************************************

 SHA1:             9738a14712571edd23541b6d7c4f3a3d766f8287
 **********************************************************************************************************************************

 Memory per process:       805 MW
 Total memory per node:   1074 MW
 Total GA space:           268 MW

 GA preallocation disabled
 GA check enabled

 Geometry recognized as XYZ


 Variable memory set to 805.3 MW

 SETTING BASIS          =    CC-PVTZ


 Recomputing integrals since basis changed


 Using spherical harmonics

 Library entry C      S cc-pVTZ              selected for orbital group  1
 Library entry C      P cc-pVTZ              selected for orbital group  1
 Library entry C      D cc-pVTZ              selected for orbital group  1
 Library entry C      F cc-pVTZ              selected for orbital group  1
 Library entry S      S cc-pVTZ              selected for orbital group  2
 Library entry S      P cc-pVTZ              selected for orbital group  2
 Library entry S      D cc-pVTZ              selected for orbital group  2
 Library entry S      F cc-pVTZ              selected for orbital group  2
 Library entry H      S cc-pVTZ              selected for orbital group  4
 Library entry H      P cc-pVTZ              selected for orbital group  4
 Library entry H      D cc-pVTZ              selected for orbital group  4


 PROGRAM * SEWARD (Integral evaluation for generally contracted gaussian basis sets)     Author: Roland Lindh, 1990

 Geometry written to block  1 of record 700


 Point group  C2  



 ATOMIC COORDINATES

 NR  ATOM    CHARGE       X              Y              Z

   1  C       6.00   -2.758117640   -2.250776064    0.302417974
   2  C       6.00    2.758117640    2.250776064    0.302417974
   3  C       6.00   -5.383465579   -1.819525823    0.187678717
   4  C       6.00    5.383465579    1.819525823    0.187678717
   5  C       6.00   -5.960112860    0.616215501   -0.389286794
   6  C       6.00    5.960112860   -0.616215501   -0.389286794
   7  S      16.00   -3.306575499    2.379546349   -0.839894445
   8  S      16.00    3.306575499   -2.379546349   -0.839894445
   9  C       6.00   -1.357790330   -0.135336138   -0.189140231
  10  C       6.00    1.357790330    0.135336138   -0.189140231
  11  H       1.00   -1.908558190   -4.032651928    0.799071448
  12  H       1.00    1.908558190    4.032651928    0.799071448
  13  H       1.00   -6.785504980   -3.248291243    0.547777746
  14  H       1.00    6.785504980    3.248291243    0.547777746
  15  H       1.00   -7.792345957    1.464157723   -0.590051487
  16  H       1.00    7.792345957   -1.464157723   -0.590051487

 Bond lengths in Bohr (Angstrom)

  1- 3  2.663004632   1- 9  2.584111477   1-11  2.035558284   2- 4  2.663004632   2-10  2.584111477
       ( 1.409201364)       ( 1.367452904)       ( 1.077171055)       ( 1.409201364)       ( 1.367452904)

  2-12  2.035558284   3- 5  2.568705332   3-13  2.033901772   4- 6  2.568705332   4-14  2.033901772
       ( 1.077171055)       ( 1.359300323)       ( 1.076294467)       ( 1.359300323)       ( 1.076294467)

  5- 7  3.217707796   5-15  2.028889005   6- 8  3.217707796   6-16  2.028889005   7- 9  3.247441855
       ( 1.702737637)       ( 1.073641825)       ( 1.702737637)       ( 1.073641825)       ( 1.718472223)

  8-10  3.247441855   9-10  2.729036791
       ( 1.718472223)       ( 1.444144077)

 Bond angles

  1- 3- 5  112.61589754   1- 3-13  123.93134747   1- 9- 7  110.29731696   1- 9-10  128.34688330

  2- 4- 6  112.61589754   2- 4-14  123.93134747   2-10- 8  110.29731696   2-10- 9  128.34688330

  3- 1- 9  113.17056137   3- 1-11  124.31411267   3- 5- 7  111.46714242   3- 5-15  128.40798942

  4- 2-10  113.17056137   4- 2-12  124.31411267   4- 6- 8  111.46714242   4- 6-16  128.40798942

  5- 3-13  123.44470076   5- 7- 9   92.43181715   6- 4-14  123.44470076   6- 8-10   92.43181715

  7- 5-15  120.12213301   7- 9-10  121.35444924   8- 6-16  120.12213301   8-10- 9  121.35444924

  9- 1-11  122.46990442  10- 2-12  122.46990442

 NUCLEAR CHARGE:                   86
 NUMBER OF PRIMITIVE AOS:         606
 NUMBER OF SYMMETRY AOS:          550
 NUMBER OF CONTRACTIONS:          392   (  196A   +  196B   )
 NUMBER OF INNER CORE ORBITALS:     2   (    1A   +    1B   )
 NUMBER OF OUTER CORE ORBITALS:    16   (    8A   +    8B   )
 NUMBER OF VALENCE ORBITALS:       46   (   23A   +   23B   )


 NUCLEAR REPULSION ENERGY  637.31599080


 Eigenvalues of metric

         1 0.725E-04 0.424E-03 0.617E-03 0.816E-03 0.925E-03 0.112E-02 0.120E-02 0.130E-02
         2 0.850E-04 0.105E-03 0.577E-03 0.701E-03 0.944E-03 0.102E-02 0.123E-02 0.133E-02


 Contracted 2-electron integrals neglected if value below      1.0D-11
