
 Working directory              : /home/jovyan/scratch/molpro.B6NT0zpcbg/
 Global scratch directory       : /home/jovyan/scratch/molpro.B6NT0zpcbg/
 Wavefunction directory         : /home/jovyan/wfu/
 Main file repository           : /home/jovyan/scratch/molpro.B6NT0zpcbg/

 id        : cardiff

 Nodes                nprocs
 jupyter-c-2efrancisan    1
 GA implementation: MPI file
 GA implementation (serial work in mppx): MPI file

 Using customized tuning parameters: mindgm=1; mindgv=20; mindgc=4; mindgr=1; noblas=0; minvec=7
 default implementation of scratch files=df  


 Variables initialized (1031), CPU time= 0.00 sec
 
 
 
 geometry={
 10
  B     0.0000000    0.0000000   -2.3759884
  H     0.5905364    1.0228391   -2.5936411
  H     0.5905364   -1.0228391   -2.5936411
  H    -1.1810728    0.0000000   -2.5936411
  P    -0.0000000    0.0000000    1.7684168
  H     0.6165007    1.0678105    2.4225352
  H     0.6165007   -1.0678105    2.4225352
  H    -1.2330014    0.0000000    2.4225352
  H     0.0000000    0.0000000   -1.0070281
  H    -0.0000000    0.0000000   -0.1475438
 }
 basis=cc-pVTZ
 angstrom
 
 
 hf; ccsd
 
 
 
 {put,xml;noorbitals,nobasis}
 Commands initialized (841), CPU time= 0.01 sec, 704 directives.
 Default parameters read. Elapsed time= 0.08 sec

 Checking input...
 Passed
1


                                         ***  PROGRAM SYSTEM MOLPRO  ***
                                       Copyright, TTI GmbH Stuttgart, 2015
                                    Version 2023.1 linked Mon Jun  5 13:27:10 2023


 **********************************************************************************************************************************
 LABEL *                                                                                                                                                                 
  (16 PROC) 64 bit serial version                                                        DATE: 02-Aug-23          TIME: 15:50:07  
 **********************************************************************************************************************************

 SHA1:             9738a14712571edd23541b6d7c4f3a3d766f8287
 **********************************************************************************************************************************

 Memory per process:       805 MW
 Total memory per node:   1074 MW
 Total GA space:           268 MW

 GA preallocation disabled
 GA check enabled

 Geometry recognized as XYZ


 Variable memory set to 805.3 MW

 SETTING BASIS          =    CC-PVTZ


 Recomputing integrals since basis changed


 Using spherical harmonics

 Library entry B      S cc-pVTZ              selected for orbital group  1
 Library entry B      P cc-pVTZ              selected for orbital group  1
 Library entry B      D cc-pVTZ              selected for orbital group  1
 Library entry B      F cc-pVTZ              selected for orbital group  1
 Library entry H      S cc-pVTZ              selected for orbital group  2
 Library entry H      P cc-pVTZ              selected for orbital group  2
 Library entry H      D cc-pVTZ              selected for orbital group  2
 Library entry P      S cc-pVTZ              selected for orbital group  3
 Library entry P      P cc-pVTZ              selected for orbital group  3
 Library entry P      D cc-pVTZ              selected for orbital group  3
 Library entry P      F cc-pVTZ              selected for orbital group  3


 PROGRAM * SEWARD (Integral evaluation for generally contracted gaussian basis sets)     Author: Roland Lindh, 1990

 Geometry written to block  1 of record 700


 Point group  Cs  



 ATOMIC COORDINATES

 NR  ATOM    CHARGE       X              Y              Z

   1  B       5.00    0.000000000    0.000000000   -4.489967351
   2  H       1.00    1.115952063    1.932885769   -4.901271345
   3  H       1.00    1.115952063   -1.932885769   -4.901271345
   4  H       1.00   -2.231904125    0.000000000   -4.901271345
   5  P      15.00   -0.000000000    0.000000000    3.341823426
   6  H       1.00    1.165017479    2.017869398    4.577928055
   7  H       1.00    1.165017479   -2.017869398    4.577928055
   8  H       1.00   -2.330034957    0.000000000    4.577928055
   9  H       1.00    0.000000000    0.000000000   -1.903007309
  10  H       1.00   -0.000000000    0.000000000   -0.278817373

 Bond lengths in Bohr (Angstrom)

 1-2  2.269486148  1-3  2.269486148  1-4  2.269486065  1-9  2.586960042  5-6  2.637615834
     ( 1.200960350)     ( 1.200960350)     ( 1.200960306)     ( 1.368960300)     ( 1.395766190)

  5- 7  2.637615834   5- 8  2.637615885   5-10  3.620640800   9-10  1.624189935
       ( 1.395766190)       ( 1.395766217)       ( 1.915960600)       ( 0.859484300)

 Bond angles

  1- 9-10  179.99999829   2- 1- 3  116.79068143   2- 1- 4  116.79067780   2- 1- 9  100.44154086

  3- 1- 4  116.79067780   3- 1- 9  100.44154086   4- 1- 9  100.44154124   5-10- 9  180.00000000

  6- 5- 7   99.82027708   6- 5- 8   99.82027914   6- 5-10  117.94635571   7- 5- 8   99.82027914

  7- 5-10  117.94635571   8- 5-10  117.94635512

 NUCLEAR CHARGE:                   28
 NUMBER OF PRIMITIVE AOS:         247
 NUMBER OF SYMMETRY AOS:          229
 NUMBER OF CONTRACTIONS:          176   (  111A'  +   65A"  )
 NUMBER OF INNER CORE ORBITALS:     1   (    1A'  +    0A"  )
 NUMBER OF OUTER CORE ORBITALS:     5   (    4A'  +    1A"  )
 NUMBER OF VALENCE ORBITALS:       16   (   12A'  +    4A"  )


 NUCLEAR REPULSION ENERGY   55.65651278


 Eigenvalues of metric

         1 0.337E-03 0.721E-03 0.122E-02 0.144E-02 0.163E-02 0.217E-02 0.300E-02 0.340E-02
         2 0.163E-02 0.217E-02 0.139E-01 0.152E-01 0.180E-01 0.283E-01 0.295E-01 0.472E-01


 Contracted 2-electron integrals neglected if value below      1.0D-11
 AO integral compression algorithm  1   Integral accuracy      1.0D-11

     166.986 MB (compressed) written to integral file ( 32.9%)


 NUMBER OF SORTED TWO-ELECTRON INTEGRALS:   61623981.     BUFFER LENGTH:  32768
 NUMBER OF SEGMENTS:   4  SEGMENT LENGTH:   15999984      RECORD LENGTH: 524288

 Memory used in sort:      16.56 MW

 SORT1 READ    63444340. AND WROTE    40618278. INTEGRALS IN    118 RECORDS. CPU TIME:     0.90 SEC, REAL TIME:     1.69 SEC
 SORT2 READ    40618278. AND WROTE    61623981. INTEGRALS IN    637 RECORDS. CPU TIME:     1.24 SEC, REAL TIME:     1.55 SEC

 FILE SIZES:   FILE 1:   198.0 MBYTE,  FILE 4:   495.0 MBYTE,   TOTAL:    693.0 MBYTE

 OPERATOR DM      FOR CENTER  0  COORDINATES:    0.000000    0.000000    0.000000


 **********************************************************************************************************************************
 DATASETS  * FILE   NREC   LENGTH (MB)   RECORD NAMES
              1      19      179.77       500      610      700      900      950      970     1000      129      960     1100   
                                          VAR    BASINP    GEOM    SYMINP    ZMAT    AOBASIS   BASIS     P2S    ABASIS      S 
                                         1400     1410     1200     1210     1080     1600     1650     1300     1700   
                                           T        V       H0       H01     AOSYM     SMH    MOLCAS    ERIS     OPER   

 PROGRAMS   *        TOTAL       INT
 CPU TIMES  *         8.33      8.19
 REAL TIME  *        11.04 SEC
 DISK USED  *       661.38 MB
 **********************************************************************************************************************************


 Program * Restricted Hartree-Fock

 Orbital guess generated from atomic densities. Full valence occupancy:   17   5

 Initial occupancy:  11   3

 NELEC=   28   SYM=1   MS2= 0   THRE=1.0D-08   THRD=3.2D-06   THRG=3.2D-06  HFMA2=F  DIIS_START=2   DIIS_MAX=10   DIIS_INCORE=F

 Level shifts:    0.00 (CLOSED)    0.00 (OPEN)    0.30 (GAP_MIN)

 ITER           ETOT              DE          GRAD        DDIFF     DIIS  NEXP   TIME(IT)  TIME(TOT)  DIAG
   1     -369.89861095    -369.89861095     0.00D+00     0.78D-01     0     0       0.52      1.03    start
   2     -369.96038673      -0.06177578     0.46D-02     0.85D-02     1     0       0.53      1.56    diag
   3     -369.96773438      -0.00734765     0.18D-02     0.30D-02     2     0       0.52      2.08    diag
   4     -369.96908301      -0.00134863     0.55D-03     0.12D-02     3     0       0.51      2.59    diag
   5     -369.96915841      -0.00007540     0.13D-03     0.38D-03     4     0       0.53      3.12    diag
   6     -369.96916271      -0.00000429     0.29D-04     0.96D-04     5     0       0.51      3.63    diag
   7     -369.96916302      -0.00000031     0.79D-05     0.25D-04     6     0       0.52      4.15    diag
   8     -369.96916303      -0.00000001     0.16D-05     0.73D-05     7     0       0.51      4.66    fixocc
   9     -369.96916304      -0.00000000     0.40D-06     0.25D-05     8     0       0.51      5.17    diag
  10     -369.96916304      -0.00000000     0.70D-07     0.21D-06     0     0       0.53      5.70    diag/orth

 Final occupancy:  11   3

 !RHF STATE 1.1 Energy               -369.969163035173
  RHF One-electron energy            -619.256461790457
  RHF Two-electron energy             193.630785971015
  RHF Kinetic energy                  370.041416758371
  RHF Nuclear energy                   55.656512784269
  RHF Virial quotient                  -0.999804741524

 !RHF STATE 1.1 Dipole moment          -0.00000002     0.00000000     2.37732265
 Dipole moment /Debye                  -0.00000005     0.00000000     6.04255147

 Orbital energies:

           1.1          2.1          3.1          4.1          5.1          6.1          7.1          8.1          9.1         10.1
    -79.988478    -7.546822    -7.534291    -5.428137    -5.427385    -0.910323    -0.727228    -0.581593    -0.578060    -0.437937

          11.1         12.1         13.1
     -0.389528     0.105825     0.117788

           1.2          2.2          3.2          4.2          5.2
     -5.428137    -0.581593    -0.437937     0.117788     0.224749


 HOMO     11.1    -0.389528 =     -10.5996eV
 LUMO     12.1     0.105825 =       2.8796eV
 LUMO-HOMO         0.495353 =      13.4792eV

 Orbitals saved in record  2100.2


 **********************************************************************************************************************************
 DATASETS  * FILE   NREC   LENGTH (MB)   RECORD NAMES
              1      19      179.77       500      610      700      900      950      970     1000      129      960     1100   
                                          VAR    BASINP    GEOM    SYMINP    ZMAT    AOBASIS   BASIS     P2S    ABASIS      S 
                                         1400     1410     1200     1210     1080     1600     1650     1300     1700   
                                           T        V       H0       H01     AOSYM     SMH    MOLCAS    ERIS     OPER   

              2       4        0.81       700     1000      520     2100   
                                         GEOM     BASIS   MCVARS     RHF  

 PROGRAMS   *        TOTAL    HF-SCF       INT
 CPU TIMES  *        14.03      5.70      8.19
 REAL TIME  *        17.38 SEC
 DISK USED  *       661.38 MB
 **********************************************************************************************************************************


 PROGRAM * CCSD (Closed-shell coupled cluster)     Authors: C. Hampel, H.-J. Werner, 1991, M. Deegan, P.J. Knowles, 1992


 Convergence thresholds:  THRVAR = 1.00D-08  THRDEN = 1.00D-06

 Number of core orbitals:           6 (   5   1 )
 Number of closed-shell orbitals:   8 (   6   2 )
 Number of external orbitals:     162 ( 100  62 )

 Molecular orbitals read from record     2100.2  Type=RHF/CANONICAL  

 Number of N-1 electron functions:               8
 Number of N-2 electron functions:              36
 Number of singly external CSFs:               724
 Number of doubly external CSFs:            426328
 Total number of CSFs:                      427053

 Length of J-op  integral file:               0.00 MB
 Length of K-op  integral file:               1.20 MB
 Length of 3-ext integral record:             0.00 MB

 Integral transformation finished. Total CPU:   1.97 sec, npass=  1  Memory used:   8.09 MW

 Reference energy:                   -369.96916304

 MP2 singlet pair energy:              -0.26360676
 MP2 triplet pair energy:              -0.07700141
 MP2 correlation energy:               -0.34060817
 MP2 total energy:                   -370.30977121

 SCS-MP2 correlation energy:           -0.36424010   (PS=  1.200000  PT=  0.333333)
 SCS-MP2 total energy:               -370.33340314

 ITER.      SQ.NORM     CORR.ENERGY   TOTAL ENERGY   ENERGY CHANGE        DEN1      VAR(S)    VAR(P)  DIIS     TIME  TIME/IT
   1      1.16970371    -0.39017408  -370.35933711    -0.04956590    -0.03560735  0.13D-02  0.33D-02  1  1    18.01     1.87
   2      1.19050616    -0.39393425  -370.36309728    -0.00376017    -0.01552215  0.49D-04  0.21D-03  2  2    19.68     1.91
   3      1.19453824    -0.39396280  -370.36312584    -0.00002855    -0.00175899  0.18D-04  0.19D-04  3  3    21.38     1.89
   4      1.19594205    -0.39397870  -370.36314173    -0.00001589    -0.00034670  0.26D-05  0.16D-05  4  4    23.06     1.87
   5      1.19637587    -0.39397659  -370.36313962     0.00000211    -0.00010036  0.23D-06  0.22D-06  5  5    24.75     1.86
   6      1.19649047    -0.39396953  -370.36313256     0.00000706    -0.00002377  0.22D-07  0.18D-07  6  6    26.44     1.85
   7      1.19650714    -0.39396786  -370.36313089     0.00000167    -0.00000151  0.34D-08  0.22D-08  6  1    28.11     1.84
   8      1.19651014    -0.39396785  -370.36313089     0.00000001     0.00000018  0.46D-09  0.27D-09  6  2    29.81     1.84
   9      1.19650983    -0.39396797  -370.36313100    -0.00000011     0.00000056  0.11D-09  0.39D-10  6  3    31.46     1.83

 Norm of t1 vector:      0.06317067      S-energy:     0.00000002      T1 diagnostic:  0.01116710
                                                                       D1 diagnostic:  0.02469175
                                                                       D2 diagnostic:  0.17519535 (internal)


 RESULTS
 =======

  Reference energy                   -369.969163035173
  CCSD singlet pair energy             -0.313946156045
  CCSD triplet pair energy             -0.080021830019
  CCSD correlation energy              -0.393967965791

 !CCSD total energy                  -370.363131000963

 Timing summary (sec):

 STEP                 CPU(USER)    SYS     CPU(TOT)    WALL
 Transformation          1.99      0.18      2.17      2.56
 CCSD iterations        29.49      0.86     30.35     16.54

 Program statistics:

 Available memory in ccsd:               805306101
 Min. memory needed in ccsd:               1305035
 Max. memory used in ccsd:                 1658679
 Max. memory used in cckext:               2087448 ( 9 integral passes)



 **********************************************************************************************************************************
 DATASETS  * FILE   NREC   LENGTH (MB)   RECORD NAMES
              1      20      252.32       500      610      700      900      950      970     1000      129      960     1100   
                                          VAR    BASINP    GEOM    SYMINP    ZMAT    AOBASIS   BASIS     P2S    ABASIS      S 
                                         1400     1410     1200     1210     1080     1600     1650     1300     1700     1380   
                                           T        V       H0       H01     AOSYM     SMH    MOLCAS    ERIS     OPER     JKOP   

              2       4        0.81       700     1000      520     2100   
                                         GEOM     BASIS   MCVARS     RHF  

 PROGRAMS   *        TOTAL      CCSD    HF-SCF       INT
 CPU TIMES  *        31.17     17.14      5.70      8.19
 REAL TIME  *        36.52 SEC
 DISK USED  *       661.38 MB
 **********************************************************************************************************************************

 Dump information in style XML to xml output                                                                      

 Orbitals will not be exported.

 **********************************************************************************************************************************

 CCSD/cc-pVTZ energy=   -370.363131000963

            CCSD          HF-SCF
   -370.36313100   -369.96916304
 **********************************************************************************************************************************
 Molpro calculation terminated
