
 Working directory              : /home/jovyan/scratch/molpro.m60ChMS1NC/
 Global scratch directory       : /home/jovyan/scratch/molpro.m60ChMS1NC/
 Wavefunction directory         : /home/jovyan/wfu/
 Main file repository           : /home/jovyan/scratch/molpro.m60ChMS1NC/

 id        : cardiff

 Nodes                nprocs
 jupyter-c-2efrancisan    1
 GA implementation: MPI file
 GA implementation (serial work in mppx): MPI file

 Using customized tuning parameters: mindgm=1; mindgv=20; mindgc=4; mindgr=1; noblas=0; minvec=7
 default implementation of scratch files=df  


 Variables initialized (1031), CPU time= 0.01 sec
 
 
 
 geometry={
 8
  4HF (cyc) (Full point group C4h)
  H -0.302062 1.405585 0.000000
  H 1.405585 0.302062 0.000000
  H 0.302062 -1.405585 0.000000
  H -1.405585 -0.302062 0.000000
  F 1.249541 1.249541 0.000000
  F -1.249541 1.249541 0.000000
  F 1.249541 -1.249541 0.000000
  F -1.249541 -1.249541 0.000000
 }
 basis=cc-pVTZ
 angstrom
 
 
 hf; papt;mp2
 
 
 
 {put,xml;noorbitals,nobasis}
 Commands initialized (841), CPU time= 0.01 sec, 704 directives.
 Default parameters read. Elapsed time= 0.08 sec

 Checking input...
 Passed
1


                                         ***  PROGRAM SYSTEM MOLPRO  ***
                                       Copyright, TTI GmbH Stuttgart, 2015
                                    Version 2023.1 linked Mon Jun  5 13:27:10 2023


 **********************************************************************************************************************************
 LABEL *                                                                                                                                                                 
  (16 PROC) 64 bit serial version                                                        DATE: 03-Aug-23          TIME: 13:08:45  
 **********************************************************************************************************************************

 SHA1:             9738a14712571edd23541b6d7c4f3a3d766f8287
 **********************************************************************************************************************************

 Memory per process:       805 MW
 Total memory per node:   1074 MW
 Total GA space:           268 MW

 GA preallocation disabled
 GA check enabled

 Geometry recognized as XYZ


 Variable memory set to 805.3 MW

 SETTING BASIS          =    CC-PVTZ


 Recomputing integrals since basis changed


 Using spherical harmonics

 Library entry H      S cc-pVTZ              selected for orbital group  1
 Library entry H      P cc-pVTZ              selected for orbital group  1
 Library entry H      D cc-pVTZ              selected for orbital group  1
 Library entry F      S cc-pVTZ              selected for orbital group  2
 Library entry F      P cc-pVTZ              selected for orbital group  2
 Library entry F      D cc-pVTZ              selected for orbital group  2
 Library entry F      F cc-pVTZ              selected for orbital group  2


 PROGRAM * SEWARD (Integral evaluation for generally contracted gaussian basis sets)     Author: Roland Lindh, 1990

 Geometry written to block  1 of record 700


 Point group  C2h 



 ATOMIC COORDINATES

 NR  ATOM    CHARGE       X              Y              Z

   1  H       1.00   -0.570814453    2.656170695    0.000000000
   2  H       1.00    0.570814453   -2.656170695    0.000000000
   3  H       1.00    2.656170695    0.570814453    0.000000000
   4  H       1.00   -2.656170695   -0.570814453    0.000000000
   5  F       9.00    2.361290271    2.361290271    0.000000000
   6  F       9.00   -2.361290271   -2.361290271    0.000000000
   7  F       9.00   -2.361290271    2.361290271    0.000000000
   8  F       9.00    2.361290271   -2.361290271    0.000000000

 Bond lengths in Bohr (Angstrom)

 1-7  1.814595856  2-8  1.814595856  3-5  1.814595856  4-6  1.814595856
     ( 0.960242774)     ( 0.960242774)     ( 0.960242774)     ( 0.960242774)

 NUCLEAR CHARGE:                   40
 NUMBER OF PRIMITIVE AOS:         256
 NUMBER OF SYMMETRY AOS:          232
 NUMBER OF CONTRACTIONS:          176   (   60Ag  +   28Au  +   60Bu  +   28Bg  )
 NUMBER OF INNER CORE ORBITALS:     0   (    0Ag  +    0Au  +    0Bu  +    0Bg  )
 NUMBER OF OUTER CORE ORBITALS:     4   (    2Ag  +    0Au  +    2Bu  +    0Bg  )
 NUMBER OF VALENCE ORBITALS:       20   (    8Ag  +    2Au  +    8Bu  +    2Bg  )


 NUCLEAR REPULSION ENERGY  139.27949071


 Eigenvalues of metric

         1 0.300E-02 0.334E-02 0.761E-02 0.895E-02 0.109E-01 0.111E-01 0.373E-01 0.433E-01
         2 0.495E-01 0.508E-01 0.109E+00 0.166E+00 0.240E+00 0.314E+00 0.378E+00 0.452E+00
         3 0.312E-02 0.312E-02 0.793E-02 0.793E-02 0.112E-01 0.112E-01 0.400E-01 0.400E-01
         4 0.501E-01 0.501E-01 0.135E+00 0.135E+00 0.260E+00 0.260E+00 0.444E+00 0.444E+00


 Contracted 2-electron integrals neglected if value below      1.0D-11
 AO integral compression algorithm  1   Integral accuracy      1.0D-11

     149.422 MB (compressed) written to integral file ( 46.7%)


 NUMBER OF SORTED TWO-ELECTRON INTEGRALS:   31440140.     BUFFER LENGTH:  32768
 NUMBER OF SEGMENTS:   2  SEGMENT LENGTH:   15994742      RECORD LENGTH: 524288

 Memory used in sort:      16.55 MW

 SORT1 READ    40020200. AND WROTE    29337108. INTEGRALS IN     85 RECORDS. CPU TIME:     0.88 SEC, REAL TIME:     1.20 SEC
 SORT2 READ    29337108. AND WROTE    31440140. INTEGRALS IN    570 RECORDS. CPU TIME:     0.85 SEC, REAL TIME:     1.07 SEC

 FILE SIZES:   FILE 1:   180.3 MBYTE,  FILE 4:   356.6 MBYTE,   TOTAL:    536.8 MBYTE

 OPERATOR DM      FOR CENTER  0  COORDINATES:    0.000000    0.000000    0.000000


 **********************************************************************************************************************************
 DATASETS  * FILE   NREC   LENGTH (MB)   RECORD NAMES
              1      19      146.80       500      610      700      900      950      970     1000      129      960     1100   
                                          VAR    BASINP    GEOM    SYMINP    ZMAT    AOBASIS   BASIS     P2S    ABASIS      S 
                                         1400     1410     1200     1210     1080     1600     1650     1300     1700   
                                           T        V       H0       H01     AOSYM     SMH    MOLCAS    ERIS     OPER   

 PROGRAMS   *        TOTAL       INT
 CPU TIMES  *         7.24      7.11
 REAL TIME  *         9.18 SEC
 DISK USED  *       512.45 MB
 **********************************************************************************************************************************


 Program * Restricted Hartree-Fock

 Orbital guess generated from atomic densities. Full valence occupancy:   10   2  10   2

 Initial occupancy:   8   2   8   2

 NELEC=   40   SYM=1   MS2= 0   THRE=1.0D-08   THRD=3.2D-06   THRG=3.2D-06  HFMA2=F  DIIS_START=2   DIIS_MAX=10   DIIS_INCORE=F

 Level shifts:    0.00 (CLOSED)    0.00 (OPEN)    0.30 (GAP_MIN)

 ITER           ETOT              DE          GRAD        DDIFF     DIIS  NEXP   TIME(IT)  TIME(TOT)  DIAG
   1     -400.19485653    -400.19485653     0.00D+00     0.13D+00     0     0       0.16      0.33    start
   2     -400.25060767      -0.05575114     0.11D-01     0.15D-01     1     0       0.15      0.48    diag
   3     -400.26330210      -0.01269443     0.54D-02     0.41D-02     2     0       0.17      0.65    diag
   4     -400.26373506      -0.00043296     0.69D-03     0.90D-03     3     0       0.17      0.82    diag
   5     -400.26379011      -0.00005505     0.18D-03     0.30D-03     4     0       0.16      0.98    diag
   6     -400.26379684      -0.00000674     0.54D-04     0.11D-03     5     0       0.16      1.14    diag
   7     -400.26379704      -0.00000020     0.95D-05     0.20D-04     6     0       0.17      1.31    diag
   8     -400.26379704      -0.00000000     0.12D-05     0.24D-05     7     0       0.16      1.47    fixocc
   9     -400.26379704      -0.00000000     0.23D-06     0.27D-06     0     0       0.17      1.64    diag

 Final occupancy:   8   2   8   2

 !RHF STATE 1.1 Energy               -400.263797043217
  RHF One-electron energy            -838.157881301868
  RHF Two-electron energy             298.614593549372
  RHF Kinetic energy                  399.961636212278
  RHF Nuclear energy                  139.279490709279
  RHF Virial quotient                  -1.000755474535

 !RHF STATE 1.1 Dipole moment           0.00000000     0.00000000     0.00000000
 Dipole moment /Debye                   0.00000000     0.00000000     0.00000000

 Orbital energies:

           1.1          2.1          3.1          4.1          5.1          6.1          7.1          8.1          9.1         10.1
    -26.322502   -26.322480    -1.649048    -1.607241    -0.844973    -0.788973    -0.676968    -0.660262     0.161240     0.302321

           1.2          2.2          3.2          4.2
     -0.695148    -0.669104     0.737922     0.825038

           1.3          2.3          3.3          4.3          5.3          6.3          7.3          8.3          9.3         10.3
    -26.322492   -26.322492    -1.628101    -1.628101    -0.808313    -0.808313    -0.673412    -0.673412     0.242709     0.242709

           1.4          2.4          3.4          4.4
     -0.681501    -0.681501     0.791561     0.791561


 HOMO      8.1    -0.660262 =     -17.9666eV
 LUMO      9.1     0.161240 =       4.3876eV
 LUMO-HOMO         0.821502 =      22.3542eV

 Orbitals saved in record  2100.2


 **********************************************************************************************************************************
 DATASETS  * FILE   NREC   LENGTH (MB)   RECORD NAMES
              1      19      146.80       500      610      700      900      950      970     1000      129      960     1100   
                                          VAR    BASINP    GEOM    SYMINP    ZMAT    AOBASIS   BASIS     P2S    ABASIS      S 
                                         1400     1410     1200     1210     1080     1600     1650     1300     1700   
                                           T        V       H0       H01     AOSYM     SMH    MOLCAS    ERIS     OPER   

              2       4        0.66       700     1000      520     2100   
                                         GEOM     BASIS   MCVARS     RHF  

 PROGRAMS   *        TOTAL    HF-SCF       INT
 CPU TIMES  *         8.88      1.64      7.11
 REAL TIME  *        11.00 SEC
 DISK USED  *       512.45 MB
 **********************************************************************************************************************************


 PROGRAM * PAPT (Closed-shell)     Authors: C. Hampel, H.-J. Werner, 1991, P.J. Knowles, 2021


 Convergence thresholds:  THRVAR = 1.00D-08  THRDEN = 1.00D-06

 Number of core orbitals:           4 (   2   0   2   0 )
 Number of closed-shell orbitals:  16 (   6   2   6   2 )
 Number of external orbitals:     156 (  52  26  52  26 )

 Molecular orbitals read from record     2100.2  Type=RHF/CANONICAL  

 Number of N-1 electron functions:              16
 Number of N-2 electron functions:             136
 Number of singly external CSFs:               728
 Number of doubly external CSFs:            801632
 Total number of CSFs:                      802361

 Length of J-op  integral file:               0.00 MB
 Length of K-op  integral file:               0.66 MB

 Integral transformation finished. Total CPU:   0.48 sec, npass=  1  Memory used:   1.21 MW

 Reference energy:                   -400.26379704

                        CORR.ENERGY   TOTAL ENERGY   ENERGY CHANGE
 MP2:                   -1.10816395  -401.37196100    -1.10816395

 SCS-MP2 correlation energy:           -1.08053834   (PS=  1.200000  PT=  0.333333)
 SCS-MP2 total energy:               -401.34433538
 Iteration:   1     0.2304D+00
 Iteration:   2     0.2344D+00
 Iteration:   3     0.9113D-01
 Iteration:   4     0.4063D-01
 Iteration:   5     0.1706D+00
 Iteration:   6     0.5692D-02
 Iteration:   7     0.4534D-02
 Iteration:   8     0.3069D-02
 Iteration:   9     0.1323D-02
 Iteration:  10     0.5938D-02
 Iteration:  11     0.4055D-03
 Iteration:  12     0.2476D-02
 Iteration:  13     0.1342D-03
 Iteration:  14     0.7352D-04
 PAPT operator written to  7000.1
 PAPT orbitals and eigenvalues written to  7000.2

 MP3(D):                -1.10433767  -401.36813472     0.00382628



 RESULTS
 =======

  Reference energy                   -400.263797043217
  MP3 singlet pair energy              -0.710893831235
  MP3 triplet pair energy              -0.393443842004
  MP3 correlation energy               -1.104337673240

 !MP3 total energy                   -401.368134716457

 Timing summary (sec):

 STEP                 CPU(USER)    SYS     CPU(TOT)    WALL
 Transformation          0.52      0.09      0.61      0.73
 CCSD iterations        12.05      0.12     12.17      3.15

 Program statistics:

 Available memory in ccsd:               805305336
 Min. memory needed in ccsd:               2041531
 Max. memory used in ccsd:                 2764627
 Max. memory used in cckext:               2488758 ( 1 integral passes)



 **********************************************************************************************************************************
 DATASETS  * FILE   NREC   LENGTH (MB)   RECORD NAMES
              1      21      159.53       500      610      700      900      950      970     1000      129      960     1100   
                                          VAR    BASINP    GEOM    SYMINP    ZMAT    AOBASIS   BASIS     P2S    ABASIS      S 
                                         1400     1410     1200     1210     1080     1600     1650     1300     1700     1380   
                                           T        V       H0       H01     AOSYM     SMH    MOLCAS    ERIS     OPER     JKOP   
                                         7000   
                                        PAPT AO    

              2       5        0.96       700     1000      520     2100     7000   
                                         GEOM     BASIS   MCVARS     RHF     PAPT   

 PROGRAMS   *        TOTAL      PAPT    HF-SCF       INT
 CPU TIMES  *        12.39      3.51      1.64      7.11
 REAL TIME  *        14.93 SEC
 DISK USED  *       512.45 MB
 **********************************************************************************************************************************


 PROGRAM * MP2 (Closed-shell)     Authors: C. Hampel, H.-J. Werner, 1991, M. Deegan, P.J. Knowles, 1992


 Convergence thresholds:  THRVAR = 1.00D-08  THRDEN = 1.00D-06

 Number of core orbitals:           4 (   2   0   2   0 )
 Number of closed-shell orbitals:  16 (   6   2   6   2 )
 Number of external orbitals:     156 (  52  26  52  26 )

 Molecular orbitals read from record     7000.2  Type=PAPT/CANONICAL (state 1.1)

 Number of N-1 electron functions:              16
 Number of N-2 electron functions:             136
 Number of singly external CSFs:               728
 Number of doubly external CSFs:            801632
 Total number of CSFs:                      802361

 Length of J-op  integral file:               0.00 MB
 Length of K-op  integral file:               0.66 MB

 Integral transformation finished. Total CPU:   0.48 sec, npass=  1  Memory used:   1.21 MW
 Orbital energies read from record       7000.2  Type=PAPT/CANONICAL (state 1.1)

 Memory needed for MP2:                      0.04 MW

 SCS-MP2 correlation energy:           -1.083843319006   (PS=  1.200000  PT=  0.333333)
 SCS-MP2 total energy:               -401.347640362224


  Reference energy                   -400.263797043217
  MP2 singlet pair energy              -0.681009344549
  MP2 triplet pair energy              -0.428515883916
  MP2 correlation energy               -1.109525228465

 !MP2 total energy                   -401.373322271682


 **********************************************************************************************************************************
 DATASETS  * FILE   NREC   LENGTH (MB)   RECORD NAMES
              1      21      159.53       500      610      700      900      950      970     1000      129      960     1100   
                                          VAR    BASINP    GEOM    SYMINP    ZMAT    AOBASIS   BASIS     P2S    ABASIS      S 
                                         1400     1410     1200     1210     1080     1600     1650     1300     1700     1380   
                                           T        V       H0       H01     AOSYM     SMH    MOLCAS    ERIS     OPER     JKOP   
                                         7000   
                                        PAPT AO    

              2       5        0.96       700     1000      520     2100     7000   
                                         GEOM     BASIS   MCVARS     RHF     PAPT   

 PROGRAMS   *        TOTAL       MP2      PAPT    HF-SCF       INT
 CPU TIMES  *        13.17      0.78      3.51      1.64      7.11
 REAL TIME  *        15.95 SEC
 DISK USED  *       512.45 MB
 **********************************************************************************************************************************

 Dump information in style XML to xml output                                                                      

 Orbitals will not be exported.

 **********************************************************************************************************************************

 MP2/cc-pVTZ energy=   -401.373322271682

             MP2            PAPT          HF-SCF
   -401.37332227   -401.36813472   -400.26379704
 **********************************************************************************************************************************
 Molpro calculation terminated
