
 Working directory              : /home/jovyan/scratch/molpro.SYjcRkS3FQ/
 Global scratch directory       : /home/jovyan/scratch/molpro.SYjcRkS3FQ/
 Wavefunction directory         : /home/jovyan/wfu/
 Main file repository           : /home/jovyan/scratch/molpro.SYjcRkS3FQ/

 id        : cardiff

 Nodes                nprocs
 jupyter-c-2efrancisan    1
 GA implementation: MPI file
 GA implementation (serial work in mppx): MPI file

 Using customized tuning parameters: mindgm=1; mindgv=20; mindgc=4; mindgr=1; noblas=0; minvec=7
 default implementation of scratch files=df  


 Variables initialized (1031), CPU time= 0.00 sec
 
 
 
 geometry={
 3
    S   0.00001473056183      0.00000027536705      0.00000000000000
    H   1.31722300858301      0.00000454820039      0.00000000000000
    H   -1.31724922264958     -0.00000400609083      0.00000000000000
 }
 basis=cc-pVDZ
 angstrom
 
 
 hf; papt;mp2
 
 
 
 {put,xml;noorbitals,nobasis}
 Commands initialized (841), CPU time= 0.01 sec, 704 directives.
 Default parameters read. Elapsed time= 0.08 sec

 Checking input...
 Passed
1


                                         ***  PROGRAM SYSTEM MOLPRO  ***
                                       Copyright, TTI GmbH Stuttgart, 2015
                                    Version 2023.1 linked Mon Jun  5 13:27:10 2023


 **********************************************************************************************************************************
 LABEL *                                                                                                                                                                 
  (16 PROC) 64 bit serial version                                                        DATE: 02-Aug-23          TIME: 15:33:36  
 **********************************************************************************************************************************

 SHA1:             9738a14712571edd23541b6d7c4f3a3d766f8287
 **********************************************************************************************************************************

 Memory per process:       805 MW
 Total memory per node:   1074 MW
 Total GA space:           268 MW

 GA preallocation disabled
 GA check enabled

 Geometry recognized as XYZ


 Variable memory set to 805.3 MW

 SETTING BASIS          =    CC-PVDZ


 Recomputing integrals since basis changed


 Using spherical harmonics

 Library entry S      S cc-pVDZ              selected for orbital group  1
 Library entry S      P cc-pVDZ              selected for orbital group  1
 Library entry S      D cc-pVDZ              selected for orbital group  1
 Library entry H      S cc-pVDZ              selected for orbital group  2
 Library entry H      P cc-pVDZ              selected for orbital group  2


 PROGRAM * SEWARD (Integral evaluation for generally contracted gaussian basis sets)     Author: Roland Lindh, 1990

 Geometry written to block  1 of record 700


 Point group  Cs  



 ATOMIC COORDINATES

 NR  ATOM    CHARGE       X              Y              Z

   1  S      16.00    0.000027837    0.000000520    0.000000000
   2  H       1.00    2.489190731    0.000008595    0.000000000
   3  H       1.00   -2.489240269   -0.000007570    0.000000000

 Bond lengths in Bohr (Angstrom)

 1-2  2.489162895  1-3  2.489268105
     ( 1.317208278)     ( 1.317263953)

 Bond angles

  2-1-3  180.00000000

 NUCLEAR CHARGE:                   18
 NUMBER OF PRIMITIVE AOS:          56
 NUMBER OF SYMMETRY AOS:           55
 NUMBER OF CONTRACTIONS:           28   (   21A'  +    7A"  )
 NUMBER OF INNER CORE ORBITALS:     1   (    1A'  +    0A"  )
 NUMBER OF OUTER CORE ORBITALS:     4   (    3A'  +    1A"  )
 NUMBER OF VALENCE ORBITALS:        6   (    5A'  +    1A"  )


 NUCLEAR REPULSION ENERGY   13.05632237


 Eigenvalues of metric

         1 0.187E-01 0.289E-01 0.468E-01 0.942E-01 0.103E+00 0.120E+00 0.144E+00 0.535E+00
         2 0.103E+00 0.535E+00 0.824E+00 0.100E+01 0.100E+01 0.146E+01 0.207E+01


 Contracted 2-electron integrals neglected if value below      1.0D-11
 AO integral compression algorithm  1   Integral accuracy      1.0D-11

     0.262 MB (compressed) written to integral file ( 97.0%)


 NUMBER OF SORTED TWO-ELECTRON INTEGRALS:      46606.     BUFFER LENGTH:  32768
 NUMBER OF SEGMENTS:   1  SEGMENT LENGTH:      46606      RECORD LENGTH: 524288

 Memory used in sort:       0.60 MW

 SORT1 READ       58838. AND WROTE       39735. INTEGRALS IN      1 RECORDS. CPU TIME:     0.00 SEC, REAL TIME:     0.08 SEC
 SORT2 READ       39735. AND WROTE       46606. INTEGRALS IN      1 RECORDS. CPU TIME:     0.01 SEC, REAL TIME:     0.01 SEC

 FILE SIZES:   FILE 1:    30.3 MBYTE,  FILE 4:     4.3 MBYTE,   TOTAL:     34.6 MBYTE

 OPERATOR DM      FOR CENTER  0  COORDINATES:    0.000000    0.000000    0.000000


 **********************************************************************************************************************************
 DATASETS  * FILE   NREC   LENGTH (MB)   RECORD NAMES
              1      19       28.81       500      610      700      900      950      970     1000      129      960     1100   
                                          VAR    BASINP    GEOM    SYMINP    ZMAT    AOBASIS   BASIS     P2S    ABASIS      S 
                                         1400     1410     1200     1210     1080     1600     1650     1300     1700   
                                           T        V       H0       H01     AOSYM     SMH    MOLCAS    ERIS     OPER   

 PROGRAMS   *        TOTAL       INT
 CPU TIMES  *         0.49      0.35
 REAL TIME  *         1.73 SEC
 DISK USED  *        33.31 MB
 **********************************************************************************************************************************


 Program * Restricted Hartree-Fock

 Orbital guess generated from atomic densities. Full valence occupancy:    9   2

 Initial occupancy:   7   2

 NELEC=   18   SYM=1   MS2= 0   THRE=1.0D-08   THRD=3.2D-06   THRG=3.2D-06  HFMA2=F  DIIS_START=2   DIIS_MAX=10   DIIS_INCORE=F

 Level shifts:    0.00 (CLOSED)    0.00 (OPEN)    0.30 (GAP_MIN)

 ITER           ETOT              DE          GRAD        DDIFF     DIIS  NEXP   TIME(IT)  TIME(TOT)  DIAG
   1     -398.55543287    -398.55543287     0.00D+00     0.35D+00     0     0       0.00      0.00    start
   2     -398.56664090      -0.01120802     0.92D-02     0.32D-01     1     0       0.00      0.00    diag
   3     -398.56702596      -0.00038507     0.17D-02     0.61D-02     2     0       0.00      0.00    diag
   4     -398.56704640      -0.00002044     0.37D-03     0.15D-02     3     0       0.00      0.00    diag
   5     -398.56704702      -0.00000062     0.51D-04     0.22D-03     4     0       0.00      0.00    diag
   6     -398.56704703      -0.00000001     0.61D-05     0.28D-04     5     0       0.00      0.00    diag
   7     -398.56704703      -0.00000000     0.49D-06     0.23D-05     6     0       0.01      0.01    diag
   8     -398.56704703      -0.00000000     0.39D-07     0.10D-06     0     0       0.00      0.01    fixocc

 Final occupancy:   7   2

 !RHF STATE 1.1 Energy               -398.567047032576
  RHF One-electron energy            -577.015640942502
  RHF Two-electron energy             165.392271540741
  RHF Kinetic energy                  398.584448029615
  RHF Nuclear energy                   13.056322369185
  RHF Virial quotient                  -0.999956343011

 !RHF STATE 1.1 Dipole moment          -0.00006345    -0.00000001     0.00000000
 Dipole moment /Debye                  -0.00016127    -0.00000003     0.00000000

 Orbital energies:

           1.1          2.1          3.1          4.1          5.1          6.1          7.1          8.1          9.1
    -91.933703    -8.940792    -6.626783    -6.623374    -0.968583    -0.667109    -0.365916     0.043651     0.226645

           1.2          2.2          3.2          4.2
     -6.623374    -0.365916     0.708681     0.725300


 HOMO      2.2    -0.365916 =      -9.9571eV
 LUMO      8.1     0.043651 =       1.1878eV
 LUMO-HOMO         0.409567 =      11.1449eV

 Orbitals saved in record  2100.2


 **********************************************************************************************************************************
 DATASETS  * FILE   NREC   LENGTH (MB)   RECORD NAMES
              1      19       28.81       500      610      700      900      950      970     1000      129      960     1100   
                                          VAR    BASINP    GEOM    SYMINP    ZMAT    AOBASIS   BASIS     P2S    ABASIS      S 
                                         1400     1410     1200     1210     1080     1600     1650     1300     1700   
                                           T        V       H0       H01     AOSYM     SMH    MOLCAS    ERIS     OPER   

              2       4        0.42       700     1000      520     2100   
                                         GEOM     BASIS   MCVARS     RHF  

 PROGRAMS   *        TOTAL    HF-SCF       INT
 CPU TIMES  *         0.51      0.02      0.35
 REAL TIME  *         1.77 SEC
 DISK USED  *        33.31 MB
 **********************************************************************************************************************************


 PROGRAM * PAPT (Closed-shell)     Authors: C. Hampel, H.-J. Werner, 1991, P.J. Knowles, 2021


 Convergence thresholds:  THRVAR = 1.00D-08  THRDEN = 1.00D-06

 Number of core orbitals:           5 (   4   1 )
 Number of closed-shell orbitals:   4 (   3   1 )
 Number of external orbitals:      19 (  14   5 )

 Molecular orbitals read from record     2100.2  Type=RHF/CANONICAL  

 Number of N-1 electron functions:               4
 Number of N-2 electron functions:              10
 Number of singly external CSFs:                47
 Number of doubly external CSFs:              1563
 Total number of CSFs:                        1611

 Length of J-op  integral file:               0.00 MB
 Length of K-op  integral file:               0.10 MB

 Integral transformation finished. Total CPU:   0.00 sec, npass=  1  Memory used:   0.08 MW

 Reference energy:                   -398.56704703

                        CORR.ENERGY   TOTAL ENERGY   ENERGY CHANGE
 MP2:                   -0.15699622  -398.72404325    -0.15699622

 SCS-MP2 correlation energy:           -0.15680587   (PS=  1.200000  PT=  0.333333)
 SCS-MP2 total energy:               -398.72385290
 Iteration:   1     0.1492D+00
 Iteration:   2     0.9844D+00
 Iteration:   3     0.4333D-01
 Iteration:   4     0.3125D-01
 Iteration:   5     0.1096D-01
 Iteration:   6     0.8971D-03
 Iteration:   7     0.1176D-03
 Iteration:   8     0.1410D-04
 PAPT operator written to  7000.1
 PAPT orbitals and eigenvalues written to  7000.2

 MP3(D):                -0.17665566  -398.74370269    -0.01965944



 RESULTS
 =======

  Reference energy                   -398.567047032576
  MP3 singlet pair energy              -0.121421871394
  MP3 triplet pair energy              -0.055233788998
  MP3 correlation energy               -0.176655660393

 !MP3 total energy                   -398.743702692968

 Timing summary (sec):

 STEP                 CPU(USER)    SYS     CPU(TOT)    WALL
 CCSD iterations         0.85      0.00      0.85      0.11

 Program statistics:

 Available memory in ccsd:               805306297
 Min. memory needed in ccsd:                 11115
 Max. memory used in ccsd:                   11365
 Max. memory used in cckext:                 47808 ( 1 integral passes)



 **********************************************************************************************************************************
 DATASETS  * FILE   NREC   LENGTH (MB)   RECORD NAMES
              1      21       28.87       500      610      700      900      950      970     1000      129      960     1100   
                                          VAR    BASINP    GEOM    SYMINP    ZMAT    AOBASIS   BASIS     P2S    ABASIS      S 
                                         1400     1410     1200     1210     1080     1600     1650     1300     1700     1380   
                                           T        V       H0       H01     AOSYM     SMH    MOLCAS    ERIS     OPER     JKOP   
                                         7000   
                                        PAPT AO    

              2       5        0.52       700     1000      520     2100     7000   
                                         GEOM     BASIS   MCVARS     RHF     PAPT   

 PROGRAMS   *        TOTAL      PAPT    HF-SCF       INT
 CPU TIMES  *         0.57      0.06      0.02      0.35
 REAL TIME  *         2.04 SEC
 DISK USED  *        33.31 MB
 **********************************************************************************************************************************


 PROGRAM * MP2 (Closed-shell)     Authors: C. Hampel, H.-J. Werner, 1991, M. Deegan, P.J. Knowles, 1992


 Convergence thresholds:  THRVAR = 1.00D-08  THRDEN = 1.00D-06

 Number of core orbitals:           5 (   4   1 )
 Number of closed-shell orbitals:   4 (   3   1 )
 Number of external orbitals:      19 (  14   5 )

 Molecular orbitals read from record     7000.2  Type=PAPT/CANONICAL (state 1.1)

 Number of N-1 electron functions:               4
 Number of N-2 electron functions:              10
 Number of singly external CSFs:                47
 Number of doubly external CSFs:              1563
 Total number of CSFs:                        1611

 Length of J-op  integral file:               0.00 MB
 Length of K-op  integral file:               0.10 MB

 Integral transformation finished. Total CPU:   0.00 sec, npass=  1  Memory used:   0.08 MW
 Orbital energies read from record       7000.2  Type=PAPT/CANONICAL (state 1.1)

 Memory needed for MP2:                      0.00 MW

 SCS-MP2 correlation energy:           -0.182438711085   (PS=  1.200000  PT=  0.333333)
 SCS-MP2 total energy:               -398.749485743661


  Reference energy                   -398.567047032576
  MP2 singlet pair energy              -0.120489525230
  MP2 triplet pair energy              -0.060832415587
  MP2 correlation energy               -0.181321940817

 !MP2 total energy                   -398.748368973392


 **********************************************************************************************************************************
 DATASETS  * FILE   NREC   LENGTH (MB)   RECORD NAMES
              1      21       28.87       500      610      700      900      950      970     1000      129      960     1100   
                                          VAR    BASINP    GEOM    SYMINP    ZMAT    AOBASIS   BASIS     P2S    ABASIS      S 
                                         1400     1410     1200     1210     1080     1600     1650     1300     1700     1380   
                                           T        V       H0       H01     AOSYM     SMH    MOLCAS    ERIS     OPER     JKOP   
                                         7000   
                                        PAPT AO    

              2       5        0.52       700     1000      520     2100     7000   
                                         GEOM     BASIS   MCVARS     RHF     PAPT   

 PROGRAMS   *        TOTAL       MP2      PAPT    HF-SCF       INT
 CPU TIMES  *         0.62      0.04      0.06      0.02      0.35
 REAL TIME  *         2.15 SEC
 DISK USED  *        33.31 MB
 **********************************************************************************************************************************

 Dump information in style XML to xml output                                                                      

 Orbitals will not be exported.

 **********************************************************************************************************************************

 MP2/cc-pVDZ energy=   -398.748368973392

             MP2            PAPT          HF-SCF
   -398.74836897   -398.74370269   -398.56704703
 **********************************************************************************************************************************
 Molpro calculation terminated
