
 Working directory              : /home/jovyan/scratch/molpro.Z8rRwT4CN3/
 Global scratch directory       : /home/jovyan/scratch/molpro.Z8rRwT4CN3/
 Wavefunction directory         : /home/jovyan/wfu/
 Main file repository           : /home/jovyan/scratch/molpro.Z8rRwT4CN3/

 id        : cardiff

 Nodes                nprocs
 jupyter-c-2efrancisan    1
 GA implementation: MPI file
 GA implementation (serial work in mppx): MPI file

 Using customized tuning parameters: mindgm=1; mindgv=20; mindgc=4; mindgr=1; noblas=0; minvec=7
 default implementation of scratch files=df  


 Variables initialized (1031), CPU time= 0.01 sec
 
 
 
 geometry={
 16
  4NH3 (cyc) (Full point group S4)
  H -1.710690 -0.579609 0.003110
  H -0.579609 1.710690 -0.003110
  H 2.081757 1.949474 -0.823544
  H -2.081757 -1.949474 -0.823544
  H -1.949474 2.081757 0.823544
  H 1.710690 0.579609 0.003110
  H 0.579609 -1.710690 -0.003110
  H 1.949474 -2.081757 0.823544
  N -1.596691 1.596691 0.006345
  N -1.596691 -1.596691 -0.006345
  N 1.596691 1.596691 -0.006345
  N 1.596691 -1.596691 0.006345
  H 2.084236 1.965445 0.802282
  H -1.965445 2.084236 -0.802282
  H -2.084236 -1.965445 0.802282
  H 1.965445 -2.084236 -0.802282
 }
 basis=cc-pVDZ
 angstrom
 
 
 hf; papt;mp4
 
 
 
 {put,xml;noorbitals,nobasis}
 Commands initialized (841), CPU time= 0.01 sec, 704 directives.
 Default parameters read. Elapsed time= 0.08 sec

 Checking input...
 Passed
1


                                         ***  PROGRAM SYSTEM MOLPRO  ***
                                       Copyright, TTI GmbH Stuttgart, 2015
                                    Version 2023.1 linked Mon Jun  5 13:27:10 2023


 **********************************************************************************************************************************
 LABEL *                                                                                                                                                                 
  (16 PROC) 64 bit serial version                                                        DATE: 03-Aug-23          TIME: 13:20:51  
 **********************************************************************************************************************************

 SHA1:             9738a14712571edd23541b6d7c4f3a3d766f8287
 **********************************************************************************************************************************

 Memory per process:       805 MW
 Total memory per node:   1074 MW
 Total GA space:           268 MW

 GA preallocation disabled
 GA check enabled

 Geometry recognized as XYZ


 Variable memory set to 805.3 MW

 SETTING BASIS          =    CC-PVDZ


 Recomputing integrals since basis changed


 Using spherical harmonics

 Library entry H      S cc-pVDZ              selected for orbital group  1
 Library entry H      P cc-pVDZ              selected for orbital group  1
 Library entry N      S cc-pVDZ              selected for orbital group  2
 Library entry N      P cc-pVDZ              selected for orbital group  2
 Library entry N      D cc-pVDZ              selected for orbital group  2


 PROGRAM * SEWARD (Integral evaluation for generally contracted gaussian basis sets)     Author: Roland Lindh, 1990

 Geometry written to block  1 of record 700


 Point group  C2  



 ATOMIC COORDINATES

 NR  ATOM    CHARGE       X              Y              Z

   1  H       1.00   -3.232735584   -1.095302269    0.005877048
   2  H       1.00    3.232735584    1.095302269    0.005877048
   3  H       1.00   -1.095302269    3.232735584   -0.005877048
   4  H       1.00    1.095302269   -3.232735584   -0.005877048
   5  H       1.00    3.933950588    3.683971947   -1.556272612
   6  H       1.00   -3.933950588   -3.683971947   -1.556272612
   7  H       1.00   -3.683971947    3.933950588    1.556272612
   8  H       1.00    3.683971947   -3.933950588    1.556272612
   9  N       7.00   -3.017308696    3.017308696    0.011990312
  10  N       7.00    3.017308696   -3.017308696    0.011990312
  11  N       7.00   -3.017308696   -3.017308696   -0.011990312
  12  N       7.00    3.017308696    3.017308696   -0.011990312
  13  H       1.00    3.938635219    3.714152763    1.516093255
  14  H       1.00   -3.938635219   -3.714152763    1.516093255
  15  H       1.00   -3.714152763    3.938635219   -1.516093255
  16  H       1.00    3.714152763   -3.938635219   -1.516093255

 Bond lengths in Bohr (Angstrom)

  1-11  1.934124269   2-12  1.934124269   3- 9  1.934124269   4-10  1.934124269   5-12  1.915588701
       ( 1.023494486)       ( 1.023494486)       ( 1.023494486)       ( 1.023494486)       ( 1.013685886)

  6-11  1.915588701   7- 9  1.915588701   8-10  1.915588701   9-15  1.915587013  10-16  1.915587013
       ( 1.013685886)       ( 1.013685886)       ( 1.013685886)       ( 1.013684993)       ( 1.013684993)

 11-14  1.915587013  12-13  1.915587013
       ( 1.013684993)       ( 1.013684993)

 Bond angles

  1-11- 6  107.45692246   1-11-14  107.49104102   2-12- 5  107.45692246   2-12-13  107.49104102

  3- 9- 7  107.45692246   3- 9-15  107.49104102   4-10- 8  107.45692246   4-10-16  107.49104102

  5-12-13  106.63876120   6-11-14  106.63876120   7- 9-15  106.63876120   8-10-16  106.63876120

 NUCLEAR CHARGE:                   40
 NUMBER OF PRIMITIVE AOS:         192
 NUMBER OF SYMMETRY AOS:          188
 NUMBER OF CONTRACTIONS:          116   (   58A   +   58B   )
 NUMBER OF INNER CORE ORBITALS:     0   (    0A   +    0B   )
 NUMBER OF OUTER CORE ORBITALS:     4   (    2A   +    2B   )
 NUMBER OF VALENCE ORBITALS:       28   (   14A   +   14B   )


 NUCLEAR REPULSION ENERGY  135.32155502


 Eigenvalues of metric

         1 0.140E-01 0.141E-01 0.335E-01 0.388E-01 0.409E-01 0.420E-01 0.425E-01 0.435E-01
         2 0.133E-01 0.133E-01 0.375E-01 0.375E-01 0.406E-01 0.406E-01 0.422E-01 0.422E-01


 Contracted 2-electron integrals neglected if value below      1.0D-11
 AO integral compression algorithm  1   Integral accuracy      1.0D-11

     51.118 MB (compressed) written to integral file ( 46.2%)


 NUMBER OF SORTED TWO-ELECTRON INTEGRALS:   11711795.     BUFFER LENGTH:  32768
 NUMBER OF SEGMENTS:   1  SEGMENT LENGTH:   11711795      RECORD LENGTH: 524288

 Memory used in sort:      12.27 MW

 SORT1 READ    13845696. AND WROTE    11032617. INTEGRALS IN     32 RECORDS. CPU TIME:     0.19 SEC, REAL TIME:     0.44 SEC
 SORT2 READ    11032617. AND WROTE    11711795. INTEGRALS IN    195 RECORDS. CPU TIME:     0.35 SEC, REAL TIME:     0.42 SEC

 FILE SIZES:   FILE 1:    81.7 MBYTE,  FILE 4:   134.3 MBYTE,   TOTAL:    216.0 MBYTE

 OPERATOR DM      FOR CENTER  0  COORDINATES:    0.000000    0.000000    0.000000


 **********************************************************************************************************************************
 DATASETS  * FILE   NREC   LENGTH (MB)   RECORD NAMES
              1      19       71.57       500      610      700      900      950      970     1000      129      960     1100   
                                          VAR    BASINP    GEOM    SYMINP    ZMAT    AOBASIS   BASIS     P2S    ABASIS      S 
                                         1400     1410     1200     1210     1080     1600     1650     1300     1700   
                                           T        V       H0       H01     AOSYM     SMH    MOLCAS    ERIS     OPER   

 PROGRAMS   *        TOTAL       INT
 CPU TIMES  *         3.46      3.33
 REAL TIME  *         4.86 SEC
 DISK USED  *       206.58 MB
 **********************************************************************************************************************************


 Program * Restricted Hartree-Fock

 Orbital guess generated from atomic densities. Full valence occupancy:   16  16

 Initial occupancy:  10  10

 NELEC=   40   SYM=1   MS2= 0   THRE=1.0D-08   THRD=3.2D-06   THRG=3.2D-06  HFMA2=F  DIIS_START=2   DIIS_MAX=10   DIIS_INCORE=F

 Level shifts:    0.00 (CLOSED)    0.00 (OPEN)    0.30 (GAP_MIN)

 ITER           ETOT              DE          GRAD        DDIFF     DIIS  NEXP   TIME(IT)  TIME(TOT)  DIAG
   1     -224.71545914    -224.71545914     0.00D+00     0.14D+00     0     0       0.10      0.19    start
   2     -224.79307684      -0.07761770     0.96D-02     0.20D-01     1     0       0.10      0.29    diag
   3     -224.80670797      -0.01363114     0.41D-02     0.63D-02     2     0       0.10      0.39    diag
   4     -224.80756171      -0.00085374     0.77D-03     0.18D-02     3     0       0.10      0.49    diag
   5     -224.80759094      -0.00002923     0.14D-03     0.31D-03     4     0       0.09      0.58    diag
   6     -224.80759249      -0.00000155     0.27D-04     0.67D-04     5     0       0.10      0.68    diag
   7     -224.80759258      -0.00000009     0.58D-05     0.16D-04     6     0       0.10      0.78    diag
   8     -224.80759259      -0.00000001     0.15D-05     0.46D-05     7     0       0.10      0.88    fixocc
   9     -224.80759259      -0.00000000     0.29D-06     0.98D-06     8     0       0.09      0.97    diag
  10     -224.80759259      -0.00000000     0.52D-07     0.10D-06     0     0       0.10      1.07    diag/orth

 Final occupancy:  10  10

 !RHF STATE 1.1 Energy               -224.807592586269
  RHF One-electron energy            -574.407954554072
  RHF Two-electron energy             214.278806946303
  RHF Kinetic energy                  224.373822253467
  RHF Nuclear energy                  135.321555021500
  RHF Virial quotient                  -1.001933248400

 !RHF STATE 1.1 Dipole moment           0.00000000     0.00000000    -0.00000000
 Dipole moment /Debye                   0.00000000     0.00000000    -0.00000000

 Orbital energies:

           1.1          2.1          3.1          4.1          5.1          6.1          7.1          8.1          9.1         10.1
    -15.517910   -15.517904    -1.119206    -1.104848    -0.609273    -0.603111    -0.598050    -0.589875    -0.418905    -0.385112

          11.1         12.1
      0.179509     0.241781

           1.2          2.2          3.2          4.2          5.2          6.2          7.2          8.2          9.2         10.2
    -15.517908   -15.517908    -1.111921    -1.111921    -0.600508    -0.600508    -0.597876    -0.597876    -0.402275    -0.402275

          11.2         12.2
      0.213763     0.213763


 HOMO     10.1    -0.385112 =     -10.4794eV
 LUMO     11.1     0.179509 =       4.8847eV
 LUMO-HOMO         0.564621 =      15.3641eV

 Orbitals saved in record  2100.2


 **********************************************************************************************************************************
 DATASETS  * FILE   NREC   LENGTH (MB)   RECORD NAMES
              1      19       71.57       500      610      700      900      950      970     1000      129      960     1100   
                                          VAR    BASINP    GEOM    SYMINP    ZMAT    AOBASIS   BASIS     P2S    ABASIS      S 
                                         1400     1410     1200     1210     1080     1600     1650     1300     1700   
                                           T        V       H0       H01     AOSYM     SMH    MOLCAS    ERIS     OPER   

              2       4        0.74       700     1000      520     2100   
                                         GEOM     BASIS   MCVARS     RHF  

 PROGRAMS   *        TOTAL    HF-SCF       INT
 CPU TIMES  *         4.53      1.07      3.33
 REAL TIME  *         6.06 SEC
 DISK USED  *       206.58 MB
 **********************************************************************************************************************************


 PROGRAM * PAPT (Closed-shell)     Authors: C. Hampel, H.-J. Werner, 1991, P.J. Knowles, 2021


 Convergence thresholds:  THRVAR = 1.00D-08  THRDEN = 1.00D-06

 Number of core orbitals:           4 (   2   2 )
 Number of closed-shell orbitals:  16 (   8   8 )
 Number of external orbitals:      96 (  48  48 )

 Molecular orbitals read from record     2100.2  Type=RHF/CANONICAL  

 Number of N-1 electron functions:              16
 Number of N-2 electron functions:             136
 Number of singly external CSFs:               768
 Number of doubly external CSFs:            590592
 Total number of CSFs:                      591361

 Length of J-op  integral file:               0.00 MB
 Length of K-op  integral file:               0.52 MB

 Integral transformation finished. Total CPU:   0.29 sec, npass=  1  Memory used:   1.17 MW

 Reference energy:                   -224.80759259

                        CORR.ENERGY   TOTAL ENERGY   ENERGY CHANGE
 MP2:                   -0.75810452  -225.56569711    -0.75810452

 SCS-MP2 correlation energy:           -0.75726241   (PS=  1.200000  PT=  0.333333)
 SCS-MP2 total energy:               -225.56485499
 Iteration:   1     0.1879D+00
 Iteration:   2     0.3034D+00
 Iteration:   3     0.8538D-01
 Iteration:   4     0.2092D-01
 Iteration:   5     0.4528D-01
 Iteration:   6     0.4897D-02
 Iteration:   7     0.1807D-01
 Iteration:   8     0.1584D-02
 Iteration:   9     0.1221D-02
 Iteration:  10     0.1867D-02
 Iteration:  11     0.1945D-03
 Iteration:  12     0.2546D-03
 Iteration:  13     0.1008D-03
 Iteration:  14     0.7178D-04
 PAPT operator written to  7000.1
 PAPT orbitals and eigenvalues written to  7000.2

 MP3(D):                -0.80996217  -225.61755476    -0.05185765



 RESULTS
 =======

  Reference energy                   -224.807592586269
  MP3 singlet pair energy              -0.557842866204
  MP3 triplet pair energy              -0.252119307809
  MP3 correlation energy               -0.809962174012

 !MP3 total energy                   -225.617554760282

 Timing summary (sec):

 STEP                 CPU(USER)    SYS     CPU(TOT)    WALL
 Transformation          0.32      0.04      0.36      0.46
 CCSD iterations         7.32      0.06      7.38      2.59

 Program statistics:

 Available memory in ccsd:               805305334
 Min. memory needed in ccsd:               1560175
 Max. memory used in ccsd:                 2079983
 Max. memory used in cckext:               2101900 ( 1 integral passes)



 **********************************************************************************************************************************
 DATASETS  * FILE   NREC   LENGTH (MB)   RECORD NAMES
              1      21       82.21       500      610      700      900      950      970     1000      129      960     1100   
                                          VAR    BASINP    GEOM    SYMINP    ZMAT    AOBASIS   BASIS     P2S    ABASIS      S 
                                         1400     1410     1200     1210     1080     1600     1650     1300     1700     1380   
                                           T        V       H0       H01     AOSYM     SMH    MOLCAS    ERIS     OPER     JKOP   
                                         7000   
                                        PAPT AO    

              2       5        1.00       700     1000      520     2100     7000   
                                         GEOM     BASIS   MCVARS     RHF     PAPT   

 PROGRAMS   *        TOTAL      PAPT    HF-SCF       INT
 CPU TIMES  *         7.38      2.85      1.07      3.33
 REAL TIME  *         9.15 SEC
 DISK USED  *       206.58 MB
 **********************************************************************************************************************************


 PROGRAM * MP4 (Closed-shell)     Authors: C. Hampel, H.-J. Werner, 1991, M. Deegan, P.J. Knowles, 1992


 Convergence thresholds:  THRVAR = 1.00D-08  THRDEN = 1.00D-06

 MP4(T)     terms to be evaluated (factor= 0.000)


 Number of core orbitals:           4 (   2   2 )
 Number of closed-shell orbitals:  16 (   8   8 )
 Number of external orbitals:      96 (  48  48 )

 Molecular orbitals read from record     7000.2  Type=PAPT/CANONICAL (state 1.1)

 Number of N-1 electron functions:              16
 Number of N-2 electron functions:             136
 Number of singly external CSFs:               768
 Number of doubly external CSFs:            590592
 Total number of CSFs:                      591361

 Length of J-op  integral file:               0.00 MB
 Length of K-op  integral file:               0.52 MB

 Memory could be reduced to 9.50 Mwords without degradation in triples

 Integral transformation finished. Total CPU:   0.93 sec, npass=  1  Memory used:   6.04 MW
 Orbital energies read from record       7000.2  Type=PAPT/CANONICAL (state 1.1)

 Reference energy:                   -224.80759259

                        CORR.ENERGY   TOTAL ENERGY   ENERGY CHANGE
 MP2:                   -0.81829034  -225.62588292    -0.81829034

 SCS-MP2 correlation energy:           -0.82063985   (PS=  1.200000  PT=  0.333333)
 SCS-MP2 total energy:               -225.62823243

 MP3(D):                -0.81859898  -225.62619156    -0.00030864
 MP4(DQ):               -0.81555936  -225.62315194     0.00303962
 MP4(SDQ):              -0.81900769  -225.62660028    -0.00344833

 Norm of t1 vector:      0.04578050      S-energy:    -0.00344833      T1 diagnostic:  0.00572256

 Largest off-diagonal element in interal  block of Fock matrix:  0.63D-01
 Largest off-diagonal element in external block of Fock matrix:  0.21D+00


 Total CPU time for triples:     20.44 sec


 RESULTS
 =======

  Reference energy                   -224.807592586269
  MP4(SDQ) singlet pair energy         -0.563239077208
  MP4(SDQ) triplet pair energy         -0.252320281029
  MP4(SDQ) correlation energy          -0.819007691151

  Triples contribution                 -0.019836284372
  Total correlation energy             -0.838843975523

  MP4(SDQ) total energy              -225.626600277420
 !MP4(SDTQ) total energy             -225.646436561792

 Timing summary (sec):

 STEP                 CPU(USER)    SYS     CPU(TOT)    WALL
 Transformation          1.07      0.09      1.16      2.27
 CCSD iterations         9.97      0.05     10.02      2.34
 Triples                20.44      0.89     21.33     21.63

 Program statistics:

 Available memory in ccsd:               805305334
 Min. memory needed in ccsd:               1560175
 Max. memory used in ccsd:                 2079983
 Max. memory used in cckext:               2101900 ( 1 integral passes)



 **********************************************************************************************************************************
 DATASETS  * FILE   NREC   LENGTH (MB)   RECORD NAMES
              1      22      109.49       500      610      700      900      950      970     1000      129      960     1100   
                                          VAR    BASINP    GEOM    SYMINP    ZMAT    AOBASIS   BASIS     P2S    ABASIS      S 
                                         1400     1410     1200     1210     1080     1600     1650     1300     1700     1380   
                                           T        V       H0       H01     AOSYM     SMH    MOLCAS    ERIS     OPER     JKOP   
                                         7000     1380(1)
                                        PAPT AO   JKOP   

              2       5        1.00       700     1000      520     2100     7000   
                                         GEOM     BASIS   MCVARS     RHF     PAPT   

 PROGRAMS   *        TOTAL       MP4      PAPT    HF-SCF       INT
 CPU TIMES  *        31.22     23.83      2.85      1.07      3.33
 REAL TIME  *        35.43 SEC
 DISK USED  *       206.58 MB
 **********************************************************************************************************************************

 Dump information in style XML to xml output                                                                      

 Orbitals will not be exported.

 **********************************************************************************************************************************

 MP4/cc-pVDZ energy=   -225.646436561792

             MP4            PAPT          HF-SCF
   -225.64643656   -225.61755476   -224.80759259
 **********************************************************************************************************************************
 Molpro calculation terminated
