
 Working directory              : /home/jovyan/scratch/molpro.5X514dnGbx/
 Global scratch directory       : /home/jovyan/scratch/molpro.5X514dnGbx/
 Wavefunction directory         : /home/jovyan/wfu/
 Main file repository           : /home/jovyan/scratch/molpro.5X514dnGbx/

 id        : cardiff

 Nodes                nprocs
 jupyter-c-2efrancisan    1
 GA implementation: MPI file
 GA implementation (serial work in mppx): MPI file

 Using customized tuning parameters: mindgm=1; mindgv=20; mindgc=4; mindgr=1; noblas=0; minvec=7
 default implementation of scratch files=df  


 Variables initialized (1031), CPU time= 0.01 sec
 
 
 
 geometry={
 16
  C    -1.3656935   -1.3512634    0.0000000
  C    -2.7484086   -1.0224421    0.0000000
  C    -2.8156508    0.3249638    0.0000000
  O    -1.5751158    0.8611200    0.0000000
  C    -0.6954624   -0.1694461    0.0000000
  C     0.6954624    0.1694461    0.0000000
  O     1.5751158   -0.8611200    0.0000000
  C     2.8156508   -0.3249638    0.0000000
  C     2.7484086    1.0224421    0.0000000
  C     1.3656935    1.3512634    0.0000000
  H    -0.9206722   -2.3269899    0.0000000
  H    -3.5790533   -1.7013250    0.0000000
  H    -3.6279757    1.0236724    0.0000000
  H     3.6279757   -1.0236724    0.0000000
  H     3.5790533    1.7013250    0.0000000
  H     0.9206722    2.3269899    0.0000000
 }
 basis=cc-pVTZ
 angstrom
 
 
 hf; papt;mp3
 
 
 
 {put,xml;noorbitals,nobasis}
 Commands initialized (841), CPU time= 0.01 sec, 704 directives.
 Default parameters read. Elapsed time= 0.08 sec

 Checking input...
 Passed
1


                                         ***  PROGRAM SYSTEM MOLPRO  ***
                                       Copyright, TTI GmbH Stuttgart, 2015
                                    Version 2023.1 linked Mon Jun  5 13:27:10 2023


 **********************************************************************************************************************************
 LABEL *                                                                                                                                                                 
  (16 PROC) 64 bit serial version                                                        DATE: 03-Aug-23          TIME: 21:49:15  
 **********************************************************************************************************************************

 SHA1:             9738a14712571edd23541b6d7c4f3a3d766f8287
 **********************************************************************************************************************************

 Memory per process:       805 MW
 Total memory per node:   1074 MW
 Total GA space:           268 MW

 GA preallocation disabled
 GA check enabled

 Geometry recognized as XYZ


 Variable memory set to 805.3 MW

 SETTING BASIS          =    CC-PVTZ


 Recomputing integrals since basis changed


 Using spherical harmonics

 Library entry C      S cc-pVTZ              selected for orbital group  1
 Library entry C      P cc-pVTZ              selected for orbital group  1
 Library entry C      D cc-pVTZ              selected for orbital group  1
 Library entry C      F cc-pVTZ              selected for orbital group  1
 Library entry O      S cc-pVTZ              selected for orbital group  2
 Library entry O      P cc-pVTZ              selected for orbital group  2
 Library entry O      D cc-pVTZ              selected for orbital group  2
 Library entry O      F cc-pVTZ              selected for orbital group  2
 Library entry H      S cc-pVTZ              selected for orbital group  4
 Library entry H      P cc-pVTZ              selected for orbital group  4
 Library entry H      D cc-pVTZ              selected for orbital group  4


 PROGRAM * SEWARD (Integral evaluation for generally contracted gaussian basis sets)     Author: Roland Lindh, 1990

 Geometry written to block  1 of record 700


 Point group  C2h 



 ATOMIC COORDINATES

 NR  ATOM    CHARGE       X              Y              Z

   1  C       6.00   -2.580786685   -2.553517748    0.000000000
   2  C       6.00    2.580786685    2.553517748    0.000000000
   3  C       6.00   -5.193739533   -1.932135547    0.000000000
   4  C       6.00    5.193739533    1.932135547    0.000000000
   5  C       6.00   -5.320808875    0.614092582    0.000000000
   6  C       6.00    5.320808875   -0.614092582    0.000000000
   7  O       8.00   -2.976537477    1.627280960    0.000000000
   8  O       8.00    2.976537477   -1.627280960    0.000000000
   9  C       6.00   -1.314233466   -0.320206722    0.000000000
  10  C       6.00    1.314233466    0.320206722    0.000000000
  11  H       1.00   -1.739818309   -4.397373606    0.000000000
  12  H       1.00    1.739818309    4.397373606    0.000000000
  13  H       1.00   -6.763430522   -3.215038299    0.000000000
  14  H       1.00    6.763430522    3.215038299    0.000000000
  15  H       1.00   -6.855880460    1.934460477    0.000000000
  16  H       1.00    6.855880460   -1.934460477    0.000000000

 Bond lengths in Bohr (Angstrom)

  1- 3  2.685821741   1- 9  2.567456951   1-11  2.026581416   2- 4  2.685821741   2-10  2.567456951
       ( 1.421275658)       ( 1.358639709)       ( 1.072420701)       ( 1.421275658)       ( 1.358639709)

  2-12  2.026581416   3- 5  2.549396851   3-13  2.027256588   4- 6  2.549396851   4-14  2.027256588
       ( 1.072420701)       ( 1.349082715)       ( 1.072777987)       ( 1.349082715)       ( 1.072777987)

  5- 7  2.553851812   5-15  2.024800274   6- 8  2.553851812   6-16  2.024800274   7- 9  2.560461462
       ( 1.351440179)       ( 1.071478162)       ( 1.351440179)       ( 1.071478162)       ( 1.354937855)

  8-10  2.560461462   9-10  2.705359087
       ( 1.354937855)       ( 1.431614376)

 Bond angles

  1- 3- 5  106.23391697   1- 3-13  127.36405031   1- 9- 7  109.95874721   1- 9-10  133.25144880

  2- 4- 6  106.23391697   2- 4-14  127.36405031   2-10- 8  109.95874721   2-10- 9  133.25144880

  3- 1- 9  106.18145271   3- 1-11  127.89430676   3- 5- 7  110.51691111   3- 5-15  133.55692955

  4- 2-10  106.18145271   4- 2-12  127.89430676   4- 6- 8  110.51691111   4- 6-16  133.55692955

  5- 3-13  126.40203272   5- 7- 9  107.10897200   6- 4-14  126.40203272   6- 8-10  107.10897200

  7- 5-15  115.92615933   7- 9-10  116.78980398   8- 6-16  115.92615933   8-10- 9  116.78980398

  9- 1-11  125.92424054  10- 2-12  125.92424054

 NUCLEAR CHARGE:                   70
 NUMBER OF PRIMITIVE AOS:         572
 NUMBER OF SYMMETRY AOS:          516
 NUMBER OF CONTRACTIONS:          384   (  130Ag  +   62Au  +  130Bu  +   62Bg  )
 NUMBER OF INNER CORE ORBITALS:     0   (    0Ag  +    0Au  +    0Bu  +    0Bg  )
 NUMBER OF OUTER CORE ORBITALS:    10   (    5Ag  +    0Au  +    5Bu  +    0Bg  )
 NUMBER OF VALENCE ORBITALS:       46   (   18Ag  +    5Au  +   18Bu  +    5Bg  )


 NUCLEAR REPULSION ENERGY  483.82626621


 Eigenvalues of metric

         1 0.713E-04 0.408E-03 0.951E-03 0.104E-02 0.113E-02 0.120E-02 0.128E-02 0.144E-02
         2 0.134E-01 0.206E-01 0.281E-01 0.312E-01 0.396E-01 0.427E-01 0.464E-01 0.533E-01
         3 0.581E-04 0.978E-04 0.635E-03 0.905E-03 0.103E-02 0.112E-02 0.124E-02 0.132E-02
         4 0.131E-01 0.192E-01 0.224E-01 0.235E-01 0.316E-01 0.361E-01 0.441E-01 0.494E-01


 Contracted 2-electron integrals neglected if value below      1.0D-11
 AO integral compression algorithm  1   Integral accuracy      1.0D-11

     2980.315 MB (compressed) written to integral file ( 48.0%)


 NUMBER OF SORTED TWO-ELECTRON INTEGRALS:  699736544.     BUFFER LENGTH:  32768
 NUMBER OF SEGMENTS:  22  SEGMENT LENGTH:   31999305      RECORD LENGTH: 524288

 Memory used in sort:      32.56 MW

 SORT1 READ   776603520. AND WROTE   675293775. INTEGRALS IN   1945 RECORDS. CPU TIME:    23.66 SEC, REAL TIME:    32.42 SEC
 SORT2 READ   675293775. AND WROTE   699736544. INTEGRALS IN  11369 RECORDS. CPU TIME:    14.79 SEC, REAL TIME:    18.21 SEC

 FILE SIZES:   FILE 1:  3013.9 MBYTE,  FILE 4:  8158.0 MBYTE,   TOTAL:  11171.9 MBYTE

 OPERATOR DM      FOR CENTER  0  COORDINATES:    0.000000    0.000000    0.000000


 **********************************************************************************************************************************
 DATASETS  * FILE   NREC   LENGTH (MB)   RECORD NAMES
              1      19     2706.64       500      610      700      900      950      970     1000      129      960     1100   
                                          VAR    BASINP    GEOM    SYMINP    ZMAT    AOBASIS   BASIS     P2S    ABASIS      S 
                                         1400     1410     1200     1210     1080     1600     1650     1300     1700   
                                           T        V       H0       H01     AOSYM     SMH    MOLCAS    ERIS     OPER   

 PROGRAMS   *        TOTAL       INT
 CPU TIMES  *       130.35    130.22
 REAL TIME  *       148.83 SEC
 DISK USED  *        10.41 GB
 **********************************************************************************************************************************


 Program * Restricted Hartree-Fock

 Orbital guess generated from atomic densities. Full valence occupancy:   23   5  23   5

 Initial occupancy:  15   3  14   3

 NELEC=   70   SYM=1   MS2= 0   THRE=1.0D-08   THRD=3.2D-06   THRG=3.2D-06  HFMA2=F  DIIS_START=2   DIIS_MAX=10   DIIS_INCORE=F

 Level shifts:    0.00 (CLOSED)    0.00 (OPEN)    0.30 (GAP_MIN)

 ITER           ETOT              DE          GRAD        DDIFF     DIIS  NEXP   TIME(IT)  TIME(TOT)  DIAG
   1     -456.16315968    -456.16315968     0.00D+00     0.77D-01     0     0       3.38      6.59    start
   2     -456.24830365      -0.08514397     0.47D-02     0.68D-02     1     0       3.39      9.98    diag
   3     -456.26360397      -0.01530032     0.21D-02     0.28D-02     2     0       3.33     13.31    diag
   4     -456.26658424      -0.00298027     0.78D-03     0.11D-02     3     0       3.34     16.65    diag
   5     -456.26679299      -0.00020875     0.21D-03     0.29D-03     4     0       3.29     19.94    diag
   6     -456.26683329      -0.00004030     0.68D-04     0.12D-03     5     0       3.31     23.25    diag
   7     -456.26684528      -0.00001199     0.28D-04     0.73D-04     6     0       3.31     26.56    diag
   8     -456.26684627      -0.00000099     0.88D-05     0.23D-04     7     0       3.28     29.84    fixocc
   9     -456.26684636      -0.00000009     0.33D-05     0.68D-05     8     0       3.30     33.14    diag
  10     -456.26684636      -0.00000000     0.88D-06     0.16D-05     9     0       3.41     36.55    diag/orth
  11     -456.26684636      -0.00000000     0.31D-06     0.57D-06     0     0       3.36     39.91    diag

 Final occupancy:  15   3  14   3

 !RHF STATE 1.1 Energy               -456.266846363761
  RHF One-electron energy           -1580.388781669941
  RHF Two-electron energy             640.295669092661
  RHF Kinetic energy                  455.830905431203
  RHF Nuclear energy                  483.826266213519
  RHF Virial quotient                  -1.000956365458

 !RHF STATE 1.1 Dipole moment           0.00000000     0.00000000     0.00000000
 Dipole moment /Debye                   0.00000000     0.00000000     0.00000000

 Orbital energies:

           1.1          2.1          3.1          4.1          5.1          6.1          7.1          8.1          9.1         10.1
    -20.624869   -11.296737   -11.286930   -11.228983   -11.227942    -1.474122    -1.091899    -1.062364    -0.829319    -0.791068

          11.1         12.1         13.1         14.1         15.1         16.1         17.1
     -0.755028    -0.608328    -0.574921    -0.563046    -0.533824     0.157232     0.183786

           1.2          2.2          3.2          4.2          5.2
     -0.659531    -0.408480    -0.371918     0.102283     0.214273

           1.3          2.3          3.3          4.3          5.3          6.3          7.3          8.3          9.3         10.3
    -20.624867   -11.295801   -11.286930   -11.228983   -11.227942    -1.465483    -1.093872    -0.974711    -0.830595    -0.762073

          11.3         12.3         13.3         14.3         15.3         16.3
     -0.685041    -0.597533    -0.574952    -0.552646     0.159091     0.178230

           1.4          2.4          3.4          4.4          5.4
     -0.631476    -0.402498    -0.273899     0.181669     0.283333


 HOMO      3.4    -0.273899 =      -7.4532eV
 LUMO      4.2     0.102283 =       2.7833eV
 LUMO-HOMO         0.376181 =      10.2364eV

 Orbitals saved in record  2100.2


 **********************************************************************************************************************************
 DATASETS  * FILE   NREC   LENGTH (MB)   RECORD NAMES
              1      19     2706.64       500      610      700      900      950      970     1000      129      960     1100   
                                          VAR    BASINP    GEOM    SYMINP    ZMAT    AOBASIS   BASIS     P2S    ABASIS      S 
                                         1400     1410     1200     1210     1080     1600     1650     1300     1700   
                                           T        V       H0       H01     AOSYM     SMH    MOLCAS    ERIS     OPER   

              2       4        1.33       700     1000      520     2100   
                                         GEOM     BASIS   MCVARS     RHF  

 PROGRAMS   *        TOTAL    HF-SCF       INT
 CPU TIMES  *       170.27     39.92    130.22
 REAL TIME  *       195.55 SEC
 DISK USED  *        10.41 GB
 **********************************************************************************************************************************


 PROGRAM * PAPT (Closed-shell)     Authors: C. Hampel, H.-J. Werner, 1991, P.J. Knowles, 2021


 Convergence thresholds:  THRVAR = 1.00D-08  THRDEN = 1.00D-06

 Number of core orbitals:          10 (   5   0   5   0 )
 Number of closed-shell orbitals:  25 (  10   3   9   3 )
 Number of external orbitals:     349 ( 115  59 116  59 )

 Molecular orbitals read from record     2100.2  Type=RHF/CANONICAL  

 Number of N-1 electron functions:              25
 Number of N-2 electron functions:             325
 Number of singly external CSFs:              2548
 Number of doubly external CSFs:           9789811
 Total number of CSFs:                     9792360

 Length of J-op  integral file:               0.00 MB
 Length of K-op  integral file:               2.91 MB

 Integral transformation finished. Total CPU:  12.63 sec, npass=  1  Memory used:  12.91 MW

 Reference energy:                   -456.26684636

                        CORR.ENERGY   TOTAL ENERGY   ENERGY CHANGE
 MP2:                   -1.71678938  -457.98363574    -1.71678938

 SCS-MP2 correlation energy:           -1.67186980   (PS=  1.200000  PT=  0.333333)
 SCS-MP2 total energy:               -457.93871617
 Iteration:   1     0.3010D+00
 Iteration:   2     0.4956D+00
 Iteration:   3     0.8879D-01
 Iteration:   4     0.9695D-01
 Iteration:   5     0.4689D-01
 Iteration:   6     0.2582D-01
 Iteration:   7     0.1396D+00
 Iteration:   8     0.6987D-02
 Iteration:   9     0.9474D-02
 Iteration:  10     0.3038D-02
 Iteration:  11     0.1156D-02
 Iteration:  12     0.3120D-01
 Iteration:  13     0.2911D-03
 Iteration:  14     0.4741D-03
 Iteration:  15     0.1084D-03
 Iteration:  16     0.9716D-04
 PAPT operator written to  7000.1
 PAPT orbitals and eigenvalues written to  7000.2

 MP3(D):                -1.72912654  -457.99597291    -0.01233717



 RESULTS
 =======

  Reference energy                   -456.266846363759
  MP3 singlet pair energy              -1.119771974522
  MP3 triplet pair energy              -0.609354568904
  MP3 correlation energy               -1.729126543426

 !MP3 total energy                   -457.995972907185

 Timing summary (sec):

 STEP                 CPU(USER)    SYS     CPU(TOT)    WALL
 Transformation         13.21      1.03     14.24     14.47
 CCSD iterations       234.68      1.30    235.98     66.22

 Program statistics:

 Available memory in ccsd:               805303853
 Min. memory needed in ccsd:              22671717
 Max. memory used in ccsd:                31898539
 Max. memory used in cckext:              27397758 ( 1 integral passes)



 **********************************************************************************************************************************
 DATASETS  * FILE   NREC   LENGTH (MB)   RECORD NAMES
              1      21     2849.89       500      610      700      900      950      970     1000      129      960     1100   
                                          VAR    BASINP    GEOM    SYMINP    ZMAT    AOBASIS   BASIS     P2S    ABASIS      S 
                                         1400     1410     1200     1210     1080     1600     1650     1300     1700     1380   
                                           T        V       H0       H01     AOSYM     SMH    MOLCAS    ERIS     OPER     JKOP   
                                         7000   
                                        PAPT AO    

              2       5        2.39       700     1000      520     2100     7000   
                                         GEOM     BASIS   MCVARS     RHF     PAPT   

 PROGRAMS   *        TOTAL      PAPT    HF-SCF       INT
 CPU TIMES  *       247.67     77.39     39.92    130.22
 REAL TIME  *       276.68 SEC
 DISK USED  *        10.41 GB
 **********************************************************************************************************************************


 PROGRAM * MP3 (Closed-shell)     Authors: C. Hampel, H.-J. Werner, 1991, M. Deegan, P.J. Knowles, 1992


 Convergence thresholds:  THRVAR = 1.00D-08  THRDEN = 1.00D-06

 Number of core orbitals:          10 (   5   0   5   0 )
 Number of closed-shell orbitals:  25 (  10   3   9   3 )
 Number of external orbitals:     349 ( 115  59 116  59 )

 Molecular orbitals read from record     7000.2  Type=PAPT/CANONICAL (state 1.1)

 Number of N-1 electron functions:              25
 Number of N-2 electron functions:             325
 Number of singly external CSFs:              2548
 Number of doubly external CSFs:           9789811
 Total number of CSFs:                     9792360

 Length of J-op  integral file:               0.00 MB
 Length of K-op  integral file:               2.91 MB

 Integral transformation finished. Total CPU:  12.70 sec, npass=  1  Memory used:  12.91 MW
 Orbital energies read from record       7000.2  Type=PAPT/CANONICAL (state 1.1)

 Reference energy:                   -456.26684636

                        CORR.ENERGY   TOTAL ENERGY   ENERGY CHANGE
 MP2:                   -1.74335434  -458.01020071    -1.74335434

 SCS-MP2 correlation energy:           -1.70709586   (PS=  1.200000  PT=  0.333333)
 SCS-MP2 total energy:               -457.97394223

 MP3(D):                -1.74391178  -458.01075814    -0.00055743



 RESULTS
 =======

  Reference energy                   -456.266846363759
  MP3 singlet pair energy              -1.131407788654
  MP3 triplet pair energy              -0.612503987265
  MP3 correlation energy               -1.743911775919

 !MP3 total energy                   -458.010758139678

 Timing summary (sec):

 STEP                 CPU(USER)    SYS     CPU(TOT)    WALL
 Transformation         16.72      1.62     18.34     18.79
 CCSD iterations       287.78      1.25    289.03     41.90

 Program statistics:

 Available memory in ccsd:               805303853
 Min. memory needed in ccsd:              22671717
 Max. memory used in ccsd:                31898539
 Max. memory used in cckext:              27397758 ( 1 integral passes)



 **********************************************************************************************************************************
 DATASETS  * FILE   NREC   LENGTH (MB)   RECORD NAMES
              1      21     2849.89       500      610      700      900      950      970     1000      129      960     1100   
                                          VAR    BASINP    GEOM    SYMINP    ZMAT    AOBASIS   BASIS     P2S    ABASIS      S 
                                         1400     1410     1200     1210     1080     1600     1650     1300     1700     1380   
                                           T        V       H0       H01     AOSYM     SMH    MOLCAS    ERIS     OPER     JKOP   
                                         7000   
                                        PAPT AO    

              2       5        2.39       700     1000      520     2100     7000   
                                         GEOM     BASIS   MCVARS     RHF     PAPT   

 PROGRAMS   *        TOTAL       MP3      PAPT    HF-SCF       INT
 CPU TIMES  *       304.27     56.59     77.39     39.92    130.22
 REAL TIME  *       337.44 SEC
 DISK USED  *        10.41 GB
 **********************************************************************************************************************************

 Dump information in style XML to xml output                                                                      

 Orbitals will not be exported.

 **********************************************************************************************************************************

 MP3/cc-pVTZ energy=   -458.010758139678

             MP3            PAPT          HF-SCF
   -458.01075814   -457.99597291   -456.26684636
 **********************************************************************************************************************************
 Molpro calculation terminated
