
 Working directory              : /home/jovyan/scratch/molpro.uiRQOohJIe/
 Global scratch directory       : /home/jovyan/scratch/molpro.uiRQOohJIe/
 Wavefunction directory         : /home/jovyan/wfu/
 Main file repository           : /home/jovyan/scratch/molpro.uiRQOohJIe/

 id        : cardiff

 Nodes                nprocs
 jupyter-c-2efrancisan    1
 GA implementation: MPI file
 GA implementation (serial work in mppx): MPI file

 Using customized tuning parameters: mindgm=1; mindgv=20; mindgc=4; mindgr=1; noblas=0; minvec=7
 default implementation of scratch files=df  


 Variables initialized (1031), CPU time= 0.01 sec
 
 
 
 geometry={
            3
     O         -1.09989026     -0.36122310      0.00000000
     H         -0.12964877     -0.31792312      0.00000000
     H         -1.38294827      0.56782190      0.00000000
 }
 basis=cc-pVTZ
 angstrom
 
 
 hf
 
 
 
 {put,xml;noorbitals,nobasis}
 Commands initialized (841), CPU time= 0.01 sec, 704 directives.
 Default parameters read. Elapsed time= 0.10 sec

 Checking input...
 Passed
1


                                         ***  PROGRAM SYSTEM MOLPRO  ***
                                       Copyright, TTI GmbH Stuttgart, 2015
                                    Version 2023.1 linked Mon Jun  5 13:27:10 2023


 **********************************************************************************************************************************
 LABEL *                                                                                                                                                                 
  (16 PROC) 64 bit serial version                                                        DATE: 03-Aug-23          TIME: 10:11:42  
 **********************************************************************************************************************************

 SHA1:             9738a14712571edd23541b6d7c4f3a3d766f8287
 **********************************************************************************************************************************

 Memory per process:       805 MW
 Total memory per node:   1074 MW
 Total GA space:           268 MW

 GA preallocation disabled
 GA check enabled

 Geometry recognized as XYZ


 Variable memory set to 805.3 MW

 SETTING BASIS          =    CC-PVTZ


 Recomputing integrals since basis changed


 Using spherical harmonics

 Library entry O      S cc-pVTZ              selected for orbital group  1
 Library entry O      P cc-pVTZ              selected for orbital group  1
 Library entry O      D cc-pVTZ              selected for orbital group  1
 Library entry O      F cc-pVTZ              selected for orbital group  1
 Library entry H      S cc-pVTZ              selected for orbital group  2
 Library entry H      P cc-pVTZ              selected for orbital group  2
 Library entry H      D cc-pVTZ              selected for orbital group  2


 PROGRAM * SEWARD (Integral evaluation for generally contracted gaussian basis sets)     Author: Roland Lindh, 1990

 Geometry written to block  1 of record 700


 Point group  Cs  



 ATOMIC COORDINATES

 NR  ATOM    CHARGE       X              Y              Z

   1  O       8.00   -2.078491359   -0.682612729    0.000000000
   2  H       1.00   -0.245000668   -0.600787625    0.000000000
   3  H       1.00   -2.613393475    1.073027879    0.000000000

 Bond lengths in Bohr (Angstrom)

 1-2  1.835315630  1-3  1.835318560
     ( 0.971207206)     ( 0.971208757)

 Bond angles

  2-1-3  104.38943409

 NUCLEAR CHARGE:                   10
 NUMBER OF PRIMITIVE AOS:          81
 NUMBER OF SYMMETRY AOS:           74
 NUMBER OF CONTRACTIONS:           58   (   40A'  +   18A"  )
 NUMBER OF INNER CORE ORBITALS:     0   (    0A'  +    0A"  )
 NUMBER OF OUTER CORE ORBITALS:     1   (    1A'  +    0A"  )
 NUMBER OF VALENCE ORBITALS:        6   (    5A'  +    1A"  )


 NUCLEAR REPULSION ENERGY    9.06264783

 Eigenvalues of metric

         1 0.266E-02 0.484E-02 0.606E-02 0.815E-02 0.112E-01 0.428E-01 0.482E-01 0.711E-01
         2 0.410E-01 0.111E+00 0.120E+00 0.254E+00 0.322E+00 0.451E+00 0.528E+00 0.548E+00


 Contracted 2-electron integrals neglected if value below      1.0D-11
 AO integral compression algorithm  1   Integral accuracy      1.0D-11

     4.719 MB (compressed) written to integral file ( 59.0%)


 NUMBER OF SORTED TWO-ELECTRON INTEGRALS:     771976.     BUFFER LENGTH:  32768
 NUMBER OF SEGMENTS:   1  SEGMENT LENGTH:     771976      RECORD LENGTH: 524288

 Memory used in sort:       1.33 MW

 SORT1 READ      946216. AND WROTE      721386. INTEGRALS IN      3 RECORDS. CPU TIME:     0.01 SEC, REAL TIME:     0.16 SEC
 SORT2 READ      721386. AND WROTE      771976. INTEGRALS IN     18 RECORDS. CPU TIME:     0.04 SEC, REAL TIME:     0.04 SEC

 FILE SIZES:   FILE 1:    34.8 MBYTE,  FILE 4:    12.6 MBYTE,   TOTAL:     47.5 MBYTE

 OPERATOR DM      FOR CENTER  0  COORDINATES:    0.000000    0.000000    0.000000


 **********************************************************************************************************************************
 DATASETS  * FILE   NREC   LENGTH (MB)   RECORD NAMES
              1      19       32.10       500      610      700      900      950      970     1000      129      960     1100   
                                          VAR    BASINP    GEOM    SYMINP    ZMAT    AOBASIS   BASIS     P2S    ABASIS      S 
                                         1400     1410     1200     1210     1080     1600     1650     1300     1700   
                                           T        V       H0       H01     AOSYM     SMH    MOLCAS    ERIS     OPER   

 PROGRAMS   *        TOTAL       INT
 CPU TIMES  *         0.70      0.57
 REAL TIME  *         1.91 SEC
 DISK USED  *        45.64 MB
 **********************************************************************************************************************************


 Program * Restricted Hartree-Fock

 Orbital guess generated from atomic densities. Full valence occupancy:    6   1

 Initial occupancy:   4   1

 NELEC=   10   SYM=1   MS2= 0   THRE=1.0D-08   THRD=3.2D-06   THRG=3.2D-06  HFMA2=F  DIIS_START=2   DIIS_MAX=10   DIIS_INCORE=F

 Level shifts:    0.00 (CLOSED)    0.00 (OPEN)    0.30 (GAP_MIN)

 ITER           ETOT              DE          GRAD        DDIFF     DIIS  NEXP   TIME(IT)  TIME(TOT)  DIAG
   1      -76.01742157     -76.01742157     0.00D+00     0.14D+00     0     0       0.00      0.01    start
   2      -76.04534776      -0.02792619     0.17D-01     0.24D-01     1     0       0.01      0.02    diag
   3      -76.05562931      -0.01028154     0.10D-01     0.79D-02     2     0       0.01      0.03    diag
   4      -76.05582601      -0.00019670     0.98D-03     0.12D-02     3     0       0.01      0.04    diag
   5      -76.05584754      -0.00002153     0.28D-03     0.41D-03     4     0       0.00      0.04    diag
   6      -76.05584869      -0.00000115     0.54D-04     0.94D-04     5     0       0.01      0.05    diag
   7      -76.05584872      -0.00000003     0.94D-05     0.19D-04     6     0       0.01      0.06    diag
   8      -76.05584872      -0.00000000     0.14D-05     0.28D-05     7     0       0.01      0.07    fixocc
   9      -76.05584872      -0.00000000     0.13D-06     0.22D-06     0     0       0.00      0.07    diag

 Final occupancy:   4   1

 !RHF STATE 1.1 Energy                -76.055848723134
  RHF One-electron energy            -122.883811828507
  RHF Two-electron energy              37.765315272861
  RHF Kinetic energy                   75.951970744376
  RHF Nuclear energy                    9.062647832513
  RHF Virial quotient                  -1.001367679834

 !RHF STATE 1.1 Dipole moment           0.46279498     0.65484107     0.00000000
 Dipole moment /Debye                   1.17630752     1.66443998     0.00000000

 Orbital energies:

           1.1          2.1          3.1          4.1          5.1          6.1
    -20.557259    -1.338643    -0.701972    -0.575310     0.140760     0.202774

           1.2          2.2          3.2
     -0.503405     0.787196     0.858446


 HOMO      1.2    -0.503405 =     -13.6984eV
 LUMO      5.1     0.140760 =       3.8303eV
 LUMO-HOMO         0.644165 =      17.5286eV

 Orbitals saved in record  2100.2


 **********************************************************************************************************************************
 DATASETS  * FILE   NREC   LENGTH (MB)   RECORD NAMES
              1      19       32.10       500      610      700      900      950      970     1000      129      960     1100   
                                          VAR    BASINP    GEOM    SYMINP    ZMAT    AOBASIS   BASIS     P2S    ABASIS      S 
                                         1400     1410     1200     1210     1080     1600     1650     1300     1700   
                                           T        V       H0       H01     AOSYM     SMH    MOLCAS    ERIS     OPER   

              2       4        0.44       700     1000      520     2100   
                                         GEOM     BASIS   MCVARS     RHF  

 PROGRAMS   *        TOTAL    HF-SCF       INT
 CPU TIMES  *         0.78      0.08      0.57
 REAL TIME  *         2.05 SEC
 DISK USED  *        45.64 MB
 **********************************************************************************************************************************

 Dump information in style XML to xml output                                                                      

 Orbitals will not be exported.

 **********************************************************************************************************************************

 HF/cc-pVTZ energy=    -76.055848723134

          HF-SCF
    -76.05584872
 **********************************************************************************************************************************
 Molpro calculation terminated
