
 Working directory              : /home/jovyan/scratch/molpro.vDfEKBSevt/
 Global scratch directory       : /home/jovyan/scratch/molpro.vDfEKBSevt/
 Wavefunction directory         : /home/jovyan/wfu/
 Main file repository           : /home/jovyan/scratch/molpro.vDfEKBSevt/

 id        : cardiff

 Nodes                nprocs
 jupyter-c-2efrancisan    1
 GA implementation: MPI file
 GA implementation (serial work in mppx): MPI file

 Using customized tuning parameters: mindgm=1; mindgv=20; mindgc=4; mindgr=1; noblas=0; minvec=7
 default implementation of scratch files=df  


 Variables initialized (1031), CPU time= 0.01 sec
 
 
 
 geometry={
 16
  4NH3TS (Full point group Cs)
  H 1.424320 0.315746 0.000000
  H 0.446026 -1.447322 0.000000
  H -1.508748 0.121957 0.000000
  H 0.000000 1.458660 0.000000
  H 1.507411 1.878060 0.821411
  H 1.964125 -1.661433 -0.812887
  H -1.557872 -1.938180 0.802236
  H -2.045777 1.558489 -0.812895
  N 1.134596 1.413387 0.000000
  N -1.163704 -1.448618 0.000000
  N 1.542580 -1.223744 0.000000
  N -1.527382 1.241416 0.000000
  H -2.045777 1.558489 0.812895
  H -1.557872 -1.938180 -0.802236
  H 1.964125 -1.661433 0.812887
  H 1.507411 1.878060 -0.821411
 }
 basis=cc-pVDZ
 angstrom
 
 
 hf; mp4
 
 
 
 {put,xml;noorbitals,nobasis}
 Commands initialized (841), CPU time= 0.01 sec, 704 directives.
 Default parameters read. Elapsed time= 0.07 sec

 Checking input...
 Passed
1


                                         ***  PROGRAM SYSTEM MOLPRO  ***
                                       Copyright, TTI GmbH Stuttgart, 2015
                                    Version 2023.1 linked Mon Jun  5 13:27:10 2023


 **********************************************************************************************************************************
 LABEL *                                                                                                                                                                 
  (16 PROC) 64 bit serial version                                                        DATE: 03-Aug-23          TIME: 12:45:07  
 **********************************************************************************************************************************

 SHA1:             9738a14712571edd23541b6d7c4f3a3d766f8287
 **********************************************************************************************************************************

 Memory per process:       805 MW
 Total memory per node:   1074 MW
 Total GA space:           268 MW

 GA preallocation disabled
 GA check enabled

 Geometry recognized as XYZ


 Variable memory set to 805.3 MW

 SETTING BASIS          =    CC-PVDZ


 Recomputing integrals since basis changed


 Using spherical harmonics

 Library entry H      S cc-pVDZ              selected for orbital group  1
 Library entry H      P cc-pVDZ              selected for orbital group  1
 Library entry N      S cc-pVDZ              selected for orbital group  2
 Library entry N      P cc-pVDZ              selected for orbital group  2
 Library entry N      D cc-pVDZ              selected for orbital group  2


 PROGRAM * SEWARD (Integral evaluation for generally contracted gaussian basis sets)     Author: Roland Lindh, 1990

 Geometry written to block  1 of record 700


 Point group  Cs  



 ATOMIC COORDINATES

 NR  ATOM    CHARGE       X              Y              Z

   1  H       1.00    2.691574714    0.596673465    0.000000000
   2  H       1.00    0.842866984   -2.735042194    0.000000000
   3  H       1.00   -2.851120511    0.230465329    0.000000000
   4  H       1.00    0.000000000    2.756467909    0.000000000
   5  H       1.00    2.848593947    3.549019046    1.552241826
   6  H       1.00    2.848593947    3.549019046   -1.552241826
   7  H       1.00    3.711658325   -3.139653344   -1.536133800
   8  H       1.00    3.711658325   -3.139653344    1.536133800
   9  H       1.00   -2.943951417   -3.662629380    1.516006327
  10  H       1.00   -2.943951417   -3.662629380   -1.516006327
  11  H       1.00   -3.865958242    2.945117378   -1.536148918
  12  H       1.00   -3.865958242    2.945117378    1.536148918
  13  N       7.00    2.144075702    2.670914338    0.000000000
  14  N       7.00   -2.199081850   -2.737491279    0.000000000
  15  N       7.00    2.915053725   -2.312541007    0.000000000
  16  N       7.00   -2.886333668    2.345936247    0.000000000

 Bond lengths in Bohr (Angstrom)

  1-13  2.145280953   2-15  2.114820357   3-16  2.115763968   4-13  2.145781916   5-13  1.917516237
       ( 1.135233791)       ( 1.119114738)       ( 1.119614076)       ( 1.135498889)       ( 1.014705894)

  6-13  1.917516237   7-15  1.917915733   8-15  1.917915733   9-14  1.925872883  10-14  1.925872883
       ( 1.014705894)       ( 1.014917298)       ( 1.014917298)       ( 1.019128041)       ( 1.019128041)

 11-16  1.917924877  12-16  1.917924877
       ( 1.014922137)       ( 1.014922137)

 Bond angles

  1-13- 4  107.07110203   1-13- 5  110.42656967   1-13- 6  110.42656967   2-15- 7  108.71246959

  2-15- 8  108.71246959   3-16-11  108.71547461   3-16-12  108.71547461   4-13- 5  110.41769242

  4-13- 6  110.41769242   5-13- 6  108.09548296   7-15- 8  106.43975710   9-14-10  103.84528629

 11-16-12  106.44053487

 NUCLEAR CHARGE:                   40
 NUMBER OF PRIMITIVE AOS:         192
 NUMBER OF SYMMETRY AOS:          188
 NUMBER OF CONTRACTIONS:          116   (   76A'  +   40A"  )
 NUMBER OF INNER CORE ORBITALS:     0   (    0A'  +    0A"  )
 NUMBER OF OUTER CORE ORBITALS:     4   (    4A'  +    0A"  )
 NUMBER OF VALENCE ORBITALS:       28   (   20A'  +    8A"  )


 NUCLEAR REPULSION ENERGY  150.59586220


 Eigenvalues of metric

         1 0.991E-02 0.108E-01 0.113E-01 0.178E-01 0.192E-01 0.329E-01 0.342E-01 0.383E-01
         2 0.351E-01 0.397E-01 0.399E-01 0.443E-01 0.713E-01 0.750E-01 0.751E-01 0.805E-01


 Contracted 2-electron integrals neglected if value below      1.0D-11
 AO integral compression algorithm  1   Integral accuracy      1.0D-11

     44.040 MB (compressed) written to integral file ( 44.7%)


 NUMBER OF SORTED TWO-ELECTRON INTEGRALS:   11816771.     BUFFER LENGTH:  32768
 NUMBER OF SEGMENTS:   1  SEGMENT LENGTH:   11816771      RECORD LENGTH: 524288

 Memory used in sort:      12.37 MW

 SORT1 READ    12401840. AND WROTE    10506821. INTEGRALS IN     31 RECORDS. CPU TIME:     0.21 SEC, REAL TIME:     0.71 SEC
 SORT2 READ    10506821. AND WROTE    11816771. INTEGRALS IN    168 RECORDS. CPU TIME:     0.31 SEC, REAL TIME:     0.36 SEC

 FILE SIZES:   FILE 1:    74.7 MBYTE,  FILE 4:   130.1 MBYTE,   TOTAL:    204.8 MBYTE

 OPERATOR DM      FOR CENTER  0  COORDINATES:    0.000000    0.000000    0.000000


 **********************************************************************************************************************************
 DATASETS  * FILE   NREC   LENGTH (MB)   RECORD NAMES
              1      19       66.97       500      610      700      900      950      970     1000      129      960     1100   
                                          VAR    BASINP    GEOM    SYMINP    ZMAT    AOBASIS   BASIS     P2S    ABASIS      S 
                                         1400     1410     1200     1210     1080     1600     1650     1300     1700   
                                           T        V       H0       H01     AOSYM     SMH    MOLCAS    ERIS     OPER   

 PROGRAMS   *        TOTAL       INT
 CPU TIMES  *         3.34      3.21
 REAL TIME  *         5.90 SEC
 DISK USED  *       195.86 MB
 **********************************************************************************************************************************


 Program * Restricted Hartree-Fock

 Orbital guess generated from atomic densities. Full valence occupancy:   24   8

 Initial occupancy:  16   4

 NELEC=   40   SYM=1   MS2= 0   THRE=1.0D-08   THRD=3.2D-06   THRG=3.2D-06  HFMA2=F  DIIS_START=2   DIIS_MAX=10   DIIS_INCORE=F

 Level shifts:    0.00 (CLOSED)    0.00 (OPEN)    0.30 (GAP_MIN)

 ITER           ETOT              DE          GRAD        DDIFF     DIIS  NEXP   TIME(IT)  TIME(TOT)  DIAG
   1     -224.59897477    -224.59897477     0.00D+00     0.13D+00     0     0       0.10      0.21    start
   2     -224.67814033      -0.07916556     0.94D-02     0.21D-01     1     0       0.11      0.32    diag
   3     -224.69924937      -0.02110904     0.47D-02     0.71D-02     2     0       0.10      0.42    diag
   4     -224.70019190      -0.00094252     0.77D-03     0.18D-02     3     0       0.11      0.53    diag
   5     -224.70024540      -0.00005350     0.20D-03     0.38D-03     4     0       0.11      0.64    diag
   6     -224.70025076      -0.00000537     0.62D-04     0.13D-03     5     0       0.11      0.75    diag
   7     -224.70025114      -0.00000037     0.14D-04     0.31D-04     6     0       0.11      0.86    diag
   8     -224.70025117      -0.00000003     0.37D-05     0.84D-05     7     0       0.11      0.97    fixocc
   9     -224.70025117      -0.00000000     0.14D-05     0.32D-05     8     0       0.11      1.08    diag
  10     -224.70025117      -0.00000000     0.29D-06     0.98D-06     9     0       0.12      1.20    diag/orth
  11     -224.70025117      -0.00000000     0.52D-07     0.11D-06     0     0       0.11      1.31    diag

 Final occupancy:  16   4

 !RHF STATE 1.1 Energy               -224.700251174532
  RHF One-electron energy            -605.201234082774
  RHF Two-electron energy             229.905120703338
  RHF Kinetic energy                  224.300741120658
  RHF Nuclear energy                  150.595862204905
  RHF Virial quotient                  -1.001781135684

 !RHF STATE 1.1 Dipole moment           1.37029382     1.70643693     0.00000000
 Dipole moment /Debye                   3.48293948     4.33733005     0.00000000

 Orbital energies:

           1.1          2.1          3.1          4.1          5.1          6.1          7.1          8.1          9.1         10.1
    -15.605508   -15.507390   -15.507278   -15.402911    -1.212223    -1.101251    -1.100452    -0.969665    -0.686604    -0.664639

          11.1         12.1         13.1         14.1         15.1         16.1         17.1         18.1
     -0.579721    -0.576489    -0.414290    -0.396581    -0.336010    -0.258380     0.156465     0.218231

           1.2          2.2          3.2          4.2          5.2          6.2
     -0.690861    -0.597772    -0.597550    -0.489919     0.225238     0.281767


 HOMO     16.1    -0.258380 =      -7.0309eV
 LUMO     17.1     0.156465 =       4.2576eV
 LUMO-HOMO         0.414845 =      11.2885eV

 Orbitals saved in record  2100.2


 **********************************************************************************************************************************
 DATASETS  * FILE   NREC   LENGTH (MB)   RECORD NAMES
              1      19       66.97       500      610      700      900      950      970     1000      129      960     1100   
                                          VAR    BASINP    GEOM    SYMINP    ZMAT    AOBASIS   BASIS     P2S    ABASIS      S 
                                         1400     1410     1200     1210     1080     1600     1650     1300     1700   
                                           T        V       H0       H01     AOSYM     SMH    MOLCAS    ERIS     OPER   

              2       4        0.75       700     1000      520     2100   
                                         GEOM     BASIS   MCVARS     RHF  

 PROGRAMS   *        TOTAL    HF-SCF       INT
 CPU TIMES  *         4.65      1.31      3.21
 REAL TIME  *         7.33 SEC
 DISK USED  *       195.86 MB
 **********************************************************************************************************************************


 PROGRAM * MP4 (Closed-shell)     Authors: C. Hampel, H.-J. Werner, 1991, M. Deegan, P.J. Knowles, 1992


 Convergence thresholds:  THRVAR = 1.00D-08  THRDEN = 1.00D-06

 MP4(T)     terms to be evaluated (factor= 0.000)


 Number of core orbitals:           4 (   4   0 )
 Number of closed-shell orbitals:  16 (  12   4 )
 Number of external orbitals:      96 (  60  36 )

 Molecular orbitals read from record     2100.2  Type=RHF/CANONICAL  

 Number of N-1 electron functions:              16
 Number of N-2 electron functions:             136
 Number of singly external CSFs:               864
 Number of doubly external CSFs:            599808
 Total number of CSFs:                      600673

 Length of J-op  integral file:               0.00 MB
 Length of K-op  integral file:               0.57 MB

 Memory could be reduced to 9.70 Mwords without degradation in triples

 Integral transformation finished. Total CPU:   0.70 sec, npass=  1  Memory used:   4.66 MW

 Reference energy:                   -224.70025117

                        CORR.ENERGY   TOTAL ENERGY   ENERGY CHANGE
 MP2:                   -0.79454602  -225.49479720    -0.79454602

 SCS-MP2 correlation energy:           -0.78695421   (PS=  1.200000  PT=  0.333333)
 SCS-MP2 total energy:               -225.48720538

 MP3(D):                -0.83741150  -225.53766268    -0.04286548
 MP4(DQ):               -0.84117096  -225.54142213    -0.00375946
 MP4(SDQ):              -0.84578477  -225.54603594    -0.00461381

 Norm of t1 vector:      0.05561894      S-energy:    -0.00461381      T1 diagnostic:  0.00695237


 Total CPU time for triples:     15.86 sec


 RESULTS
 =======

  Reference energy                   -224.700251174532
  MP4(SDQ) singlet pair energy         -0.568295647827
  MP4(SDQ) triplet pair energy         -0.272875312370
  MP4(SDQ) correlation energy          -0.845784769582

  Triples contribution                 -0.020942382545
  Total correlation energy             -0.866727152127

  MP4(SDQ) total energy              -225.546035944114
 !MP4(SDTQ) total energy             -225.566978326658

 Timing summary (sec):

 STEP                 CPU(USER)    SYS     CPU(TOT)    WALL
 Transformation          0.74      0.10      0.84      1.12
 CCSD iterations         7.21      0.07      7.28      2.40
 Triples                15.86      0.80     16.66     16.81

 Program statistics:

 Available memory in ccsd:               805305328
 Min. memory needed in ccsd:               1599935
 Max. memory used in ccsd:                 2126175
 Max. memory used in cckext:               2196122 ( 1 integral passes)



 **********************************************************************************************************************************
 DATASETS  * FILE   NREC   LENGTH (MB)   RECORD NAMES
              1      20      105.42       500      610      700      900      950      970     1000      129      960     1100   
                                          VAR    BASINP    GEOM    SYMINP    ZMAT    AOBASIS   BASIS     P2S    ABASIS      S 
                                         1400     1410     1200     1210     1080     1600     1650     1300     1700     1380   
                                           T        V       H0       H01     AOSYM     SMH    MOLCAS    ERIS     OPER     JKOP   

              2       4        0.75       700     1000      520     2100   
                                         GEOM     BASIS   MCVARS     RHF  

 PROGRAMS   *        TOTAL       MP4    HF-SCF       INT
 CPU TIMES  *        23.61     18.96      1.31      3.21
 REAL TIME  *        27.71 SEC
 DISK USED  *       195.86 MB
 **********************************************************************************************************************************

 Dump information in style XML to xml output                                                                      

 Orbitals will not be exported.

 **********************************************************************************************************************************

 MP4/cc-pVDZ energy=   -225.566978326658

             MP4          HF-SCF
   -225.56697833   -224.70025117
 **********************************************************************************************************************************
 Molpro calculation terminated
