
 Working directory              : /home/jovyan/scratch/molpro.1bee8YjsIO/
 Global scratch directory       : /home/jovyan/scratch/molpro.1bee8YjsIO/
 Wavefunction directory         : /home/jovyan/wfu/
 Main file repository           : /home/jovyan/scratch/molpro.1bee8YjsIO/

 id        : cardiff

 Nodes                nprocs
 jupyter-c-2efrancisan    1
 GA implementation: MPI file
 GA implementation (serial work in mppx): MPI file

 Using customized tuning parameters: mindgm=1; mindgv=20; mindgc=4; mindgr=1; noblas=0; minvec=7
 default implementation of scratch files=df  


 Variables initialized (1031), CPU time= 0.01 sec
 
 
 
 geometry={
            3
     O         -1.09989026     -0.36122310      0.00000000
     H         -0.12964877     -0.31792312      0.00000000
     H         -1.38294827      0.56782190      0.00000000
 }
 basis=cc-pVTZ
 angstrom
 
 
 hf; papt;mp3
 
 
 
 {put,xml;noorbitals,nobasis}
 Commands initialized (841), CPU time= 0.01 sec, 704 directives.
 Default parameters read. Elapsed time= 0.08 sec

 Checking input...
 Passed
1


                                         ***  PROGRAM SYSTEM MOLPRO  ***
                                       Copyright, TTI GmbH Stuttgart, 2015
                                    Version 2023.1 linked Mon Jun  5 13:27:10 2023


 **********************************************************************************************************************************
 LABEL *                                                                                                                                                                 
  (16 PROC) 64 bit serial version                                                        DATE: 03-Aug-23          TIME: 16:50:12  
 **********************************************************************************************************************************

 SHA1:             9738a14712571edd23541b6d7c4f3a3d766f8287
 **********************************************************************************************************************************

 Memory per process:       805 MW
 Total memory per node:   1074 MW
 Total GA space:           268 MW

 GA preallocation disabled
 GA check enabled

 Geometry recognized as XYZ


 Variable memory set to 805.3 MW

 SETTING BASIS          =    CC-PVTZ


 Recomputing integrals since basis changed


 Using spherical harmonics

 Library entry O      S cc-pVTZ              selected for orbital group  1
 Library entry O      P cc-pVTZ              selected for orbital group  1
 Library entry O      D cc-pVTZ              selected for orbital group  1
 Library entry O      F cc-pVTZ              selected for orbital group  1
 Library entry H      S cc-pVTZ              selected for orbital group  2
 Library entry H      P cc-pVTZ              selected for orbital group  2
 Library entry H      D cc-pVTZ              selected for orbital group  2


 PROGRAM * SEWARD (Integral evaluation for generally contracted gaussian basis sets)     Author: Roland Lindh, 1990

 Geometry written to block  1 of record 700


 Point group  Cs  



 ATOMIC COORDINATES

 NR  ATOM    CHARGE       X              Y              Z

   1  O       8.00   -2.078491359   -0.682612729    0.000000000
   2  H       1.00   -0.245000668   -0.600787625    0.000000000
   3  H       1.00   -2.613393475    1.073027879    0.000000000

 Bond lengths in Bohr (Angstrom)

 1-2  1.835315630  1-3  1.835318560
     ( 0.971207206)     ( 0.971208757)

 Bond angles

  2-1-3  104.38943409

 NUCLEAR CHARGE:                   10
 NUMBER OF PRIMITIVE AOS:          81
 NUMBER OF SYMMETRY AOS:           74
 NUMBER OF CONTRACTIONS:           58   (   40A'  +   18A"  )
 NUMBER OF INNER CORE ORBITALS:     0   (    0A'  +    0A"  )
 NUMBER OF OUTER CORE ORBITALS:     1   (    1A'  +    0A"  )
 NUMBER OF VALENCE ORBITALS:        6   (    5A'  +    1A"  )


 NUCLEAR REPULSION ENERGY    9.06264783

 Eigenvalues of metric

         1 0.266E-02 0.484E-02 0.606E-02 0.815E-02 0.112E-01 0.428E-01 0.482E-01 0.711E-01
         2 0.410E-01 0.111E+00 0.120E+00 0.254E+00 0.322E+00 0.451E+00 0.528E+00 0.548E+00


 Contracted 2-electron integrals neglected if value below      1.0D-11
 AO integral compression algorithm  1   Integral accuracy      1.0D-11

     4.719 MB (compressed) written to integral file ( 59.0%)


 NUMBER OF SORTED TWO-ELECTRON INTEGRALS:     771976.     BUFFER LENGTH:  32768
 NUMBER OF SEGMENTS:   1  SEGMENT LENGTH:     771976      RECORD LENGTH: 524288

 Memory used in sort:       1.33 MW

 SORT1 READ      946216. AND WROTE      721386. INTEGRALS IN      3 RECORDS. CPU TIME:     0.01 SEC, REAL TIME:     0.07 SEC
 SORT2 READ      721386. AND WROTE      771976. INTEGRALS IN     18 RECORDS. CPU TIME:     0.04 SEC, REAL TIME:     0.05 SEC

 FILE SIZES:   FILE 1:    34.8 MBYTE,  FILE 4:    12.6 MBYTE,   TOTAL:     47.5 MBYTE

 OPERATOR DM      FOR CENTER  0  COORDINATES:    0.000000    0.000000    0.000000


 **********************************************************************************************************************************
 DATASETS  * FILE   NREC   LENGTH (MB)   RECORD NAMES
              1      19       32.10       500      610      700      900      950      970     1000      129      960     1100   
                                          VAR    BASINP    GEOM    SYMINP    ZMAT    AOBASIS   BASIS     P2S    ABASIS      S 
                                         1400     1410     1200     1210     1080     1600     1650     1300     1700   
                                           T        V       H0       H01     AOSYM     SMH    MOLCAS    ERIS     OPER   

 PROGRAMS   *        TOTAL       INT
 CPU TIMES  *         0.68      0.54
 REAL TIME  *         1.69 SEC
 DISK USED  *        45.64 MB
 **********************************************************************************************************************************


 Program * Restricted Hartree-Fock

 Orbital guess generated from atomic densities. Full valence occupancy:    6   1

 Initial occupancy:   4   1

 NELEC=   10   SYM=1   MS2= 0   THRE=1.0D-08   THRD=3.2D-06   THRG=3.2D-06  HFMA2=F  DIIS_START=2   DIIS_MAX=10   DIIS_INCORE=F

 Level shifts:    0.00 (CLOSED)    0.00 (OPEN)    0.30 (GAP_MIN)

 ITER           ETOT              DE          GRAD        DDIFF     DIIS  NEXP   TIME(IT)  TIME(TOT)  DIAG
   1      -76.01742157     -76.01742157     0.00D+00     0.14D+00     0     0       0.01      0.02    start
   2      -76.04534776      -0.02792619     0.17D-01     0.24D-01     1     0       0.01      0.03    diag
   3      -76.05562931      -0.01028154     0.10D-01     0.79D-02     2     0       0.01      0.04    diag
   4      -76.05582601      -0.00019670     0.98D-03     0.12D-02     3     0       0.00      0.04    diag
   5      -76.05584754      -0.00002153     0.28D-03     0.41D-03     4     0       0.01      0.05    diag
   6      -76.05584869      -0.00000115     0.54D-04     0.94D-04     5     0       0.01      0.06    diag
   7      -76.05584872      -0.00000003     0.94D-05     0.19D-04     6     0       0.01      0.07    diag
   8      -76.05584872      -0.00000000     0.14D-05     0.28D-05     7     0       0.01      0.08    fixocc
   9      -76.05584872      -0.00000000     0.13D-06     0.22D-06     0     0       0.00      0.08    diag

 Final occupancy:   4   1

 !RHF STATE 1.1 Energy                -76.055848723134
  RHF One-electron energy            -122.883811828507
  RHF Two-electron energy              37.765315272861
  RHF Kinetic energy                   75.951970744376
  RHF Nuclear energy                    9.062647832513
  RHF Virial quotient                  -1.001367679834

 !RHF STATE 1.1 Dipole moment           0.46279498     0.65484107     0.00000000
 Dipole moment /Debye                   1.17630752     1.66443998     0.00000000

 Orbital energies:

           1.1          2.1          3.1          4.1          5.1          6.1
    -20.557259    -1.338643    -0.701972    -0.575310     0.140760     0.202774

           1.2          2.2          3.2
     -0.503405     0.787196     0.858446


 HOMO      1.2    -0.503405 =     -13.6984eV
 LUMO      5.1     0.140760 =       3.8303eV
 LUMO-HOMO         0.644165 =      17.5286eV

 Orbitals saved in record  2100.2


 **********************************************************************************************************************************
 DATASETS  * FILE   NREC   LENGTH (MB)   RECORD NAMES
              1      19       32.10       500      610      700      900      950      970     1000      129      960     1100   
                                          VAR    BASINP    GEOM    SYMINP    ZMAT    AOBASIS   BASIS     P2S    ABASIS      S 
                                         1400     1410     1200     1210     1080     1600     1650     1300     1700   
                                           T        V       H0       H01     AOSYM     SMH    MOLCAS    ERIS     OPER   

              2       4        0.44       700     1000      520     2100   
                                         GEOM     BASIS   MCVARS     RHF  

 PROGRAMS   *        TOTAL    HF-SCF       INT
 CPU TIMES  *         0.77      0.09      0.54
 REAL TIME  *         1.84 SEC
 DISK USED  *        45.64 MB
 **********************************************************************************************************************************


 PROGRAM * PAPT (Closed-shell)     Authors: C. Hampel, H.-J. Werner, 1991, P.J. Knowles, 2021


 Convergence thresholds:  THRVAR = 1.00D-08  THRDEN = 1.00D-06

 Number of core orbitals:           1 (   1   0 )
 Number of closed-shell orbitals:   4 (   3   1 )
 Number of external orbitals:      53 (  36  17 )

 Molecular orbitals read from record     2100.2  Type=RHF/CANONICAL  

 Number of N-1 electron functions:               4
 Number of N-2 electron functions:              10
 Number of singly external CSFs:               125
 Number of doubly external CSFs:             11703
 Total number of CSFs:                       11829

 Length of J-op  integral file:               0.00 MB
 Length of K-op  integral file:               0.19 MB

 Integral transformation finished. Total CPU:   0.01 sec, npass=  1  Memory used:   0.10 MW

 Reference energy:                    -76.05584872

                        CORR.ENERGY   TOTAL ENERGY   ENERGY CHANGE
 MP2:                   -0.26248987   -76.31833859    -0.26248987

 SCS-MP2 correlation energy:           -0.25976334   (PS=  1.200000  PT=  0.333333)
 SCS-MP2 total energy:                -76.31561206
 Iteration:   1     0.2126D+00
 Iteration:   2     0.1950D+00
 Iteration:   3     0.8180D-01
 Iteration:   4     0.1149D-01
 Iteration:   5     0.1336D-01
 Iteration:   6     0.6982D-02
 Iteration:   7     0.1948D-02
 Iteration:   8     0.3816D-02
 Iteration:   9     0.9861D-03
 Iteration:  10     0.3617D-03
 Iteration:  11     0.1562D-02
 Iteration:  12     0.1478D-03
 Iteration:  13     0.2027D-04
 PAPT operator written to  7000.1
 PAPT orbitals and eigenvalues written to  7000.2

 MP3(D):                -0.26638918   -76.32223791    -0.00389931



 RESULTS
 =======

  Reference energy                    -76.055848723134
  MP3 singlet pair energy              -0.178855133751
  MP3 triplet pair energy              -0.087534048494
  MP3 correlation energy               -0.266389182246

 !MP3 total energy                    -76.322237905379

 Timing summary (sec):

 STEP                 CPU(USER)    SYS     CPU(TOT)    WALL
 Transformation          0.01      0.01      0.02      0.12
 CCSD iterations         1.18      0.01      1.19      0.10

 Program statistics:

 Available memory in ccsd:               805306300
 Min. memory needed in ccsd:                 60391
 Max. memory used in ccsd:                   68071
 Max. memory used in cckext:                109286 ( 1 integral passes)



 **********************************************************************************************************************************
 DATASETS  * FILE   NREC   LENGTH (MB)   RECORD NAMES
              1      21       32.35       500      610      700      900      950      970     1000      129      960     1100   
                                          VAR    BASINP    GEOM    SYMINP    ZMAT    AOBASIS   BASIS     P2S    ABASIS      S 
                                         1400     1410     1200     1210     1080     1600     1650     1300     1700     1380   
                                           T        V       H0       H01     AOSYM     SMH    MOLCAS    ERIS     OPER     JKOP   
                                         7000   
                                        PAPT AO    

              2       5        0.59       700     1000      520     2100     7000   
                                         GEOM     BASIS   MCVARS     RHF     PAPT   

 PROGRAMS   *        TOTAL      PAPT    HF-SCF       INT
 CPU TIMES  *         0.89      0.12      0.09      0.54
 REAL TIME  *         2.09 SEC
 DISK USED  *        45.64 MB
 **********************************************************************************************************************************


 PROGRAM * MP3 (Closed-shell)     Authors: C. Hampel, H.-J. Werner, 1991, M. Deegan, P.J. Knowles, 1992


 Convergence thresholds:  THRVAR = 1.00D-08  THRDEN = 1.00D-06

 Number of core orbitals:           1 (   1   0 )
 Number of closed-shell orbitals:   4 (   3   1 )
 Number of external orbitals:      53 (  36  17 )

 Molecular orbitals read from record     7000.2  Type=PAPT/CANONICAL (state 1.1)

 Number of N-1 electron functions:               4
 Number of N-2 electron functions:              10
 Number of singly external CSFs:               125
 Number of doubly external CSFs:             11703
 Total number of CSFs:                       11829

 Length of J-op  integral file:               0.00 MB
 Length of K-op  integral file:               0.19 MB

 Integral transformation finished. Total CPU:   0.01 sec, npass=  1  Memory used:   0.10 MW
 Orbital energies read from record       7000.2  Type=PAPT/CANONICAL (state 1.1)

 Reference energy:                    -76.05584872

                        CORR.ENERGY   TOTAL ENERGY   ENERGY CHANGE
 MP2:                   -0.26810561   -76.32395433    -0.26810561

 SCS-MP2 correlation energy:           -0.26598706   (PS=  1.200000  PT=  0.333333)
 SCS-MP2 total energy:                -76.32183578

 MP3(D):                -0.26816450   -76.32401322    -0.00005889



 RESULTS
 =======

  Reference energy                    -76.055848723134
  MP3 singlet pair energy              -0.180254922809
  MP3 triplet pair energy              -0.087909575211
  MP3 correlation energy               -0.268164498019

 !MP3 total energy                    -76.324013221153

 Timing summary (sec):

 STEP                 CPU(USER)    SYS     CPU(TOT)    WALL
 Transformation          0.02      0.00      0.02      0.07
 CCSD iterations         1.25      0.00      1.25      0.04

 Program statistics:

 Available memory in ccsd:               805306300
 Min. memory needed in ccsd:                 60391
 Max. memory used in ccsd:                   68071
 Max. memory used in cckext:                109286 ( 1 integral passes)



 **********************************************************************************************************************************
 DATASETS  * FILE   NREC   LENGTH (MB)   RECORD NAMES
              1      21       32.35       500      610      700      900      950      970     1000      129      960     1100   
                                          VAR    BASINP    GEOM    SYMINP    ZMAT    AOBASIS   BASIS     P2S    ABASIS      S 
                                         1400     1410     1200     1210     1080     1600     1650     1300     1700     1380   
                                           T        V       H0       H01     AOSYM     SMH    MOLCAS    ERIS     OPER     JKOP   
                                         7000   
                                        PAPT AO    

              2       5        0.59       700     1000      520     2100     7000   
                                         GEOM     BASIS   MCVARS     RHF     PAPT   

 PROGRAMS   *        TOTAL       MP3      PAPT    HF-SCF       INT
 CPU TIMES  *         0.97      0.08      0.12      0.09      0.54
 REAL TIME  *         2.24 SEC
 DISK USED  *        45.64 MB
 **********************************************************************************************************************************

 Dump information in style XML to xml output                                                                      

 Orbitals will not be exported.

 **********************************************************************************************************************************

 MP3/cc-pVTZ energy=    -76.324013221153

             MP3            PAPT          HF-SCF
    -76.32401322    -76.32223791    -76.05584872
 **********************************************************************************************************************************
 Molpro calculation terminated
