
 Working directory              : /home/jovyan/scratch/molpro.eNoq9SS2M6/
 Global scratch directory       : /home/jovyan/scratch/molpro.eNoq9SS2M6/
 Wavefunction directory         : /home/jovyan/wfu/
 Main file repository           : /home/jovyan/scratch/molpro.eNoq9SS2M6/

 id        : cardiff

 Nodes                nprocs
 jupyter-c-2efrancisan    1
 GA implementation: MPI file
 GA implementation (serial work in mppx): MPI file

 Using customized tuning parameters: mindgm=1; mindgv=20; mindgc=4; mindgr=1; noblas=0; minvec=7
 default implementation of scratch files=df  


 Variables initialized (1031), CPU time= 0.01 sec
 
 
 
 geometry={
            9
     C          0.64643893      0.66204762      0.00000000
     C          0.62059167     -0.72735291      0.00000000
     O         -1.43762017     -1.04803439      0.00000000
     N         -1.81431293      0.12667382      0.00000000
     N         -1.28271604      1.17289417      0.00000000
     H          0.87969100      1.19136240      0.91554310
     H          0.87969100      1.19136240     -0.91554310
     H          0.75411826     -1.28447655      0.91762992
     H          0.75411826     -1.28447655     -0.91762992
 }
 basis=cc-pVTZ
 angstrom
 
 
 hf; ccsd(t)
 
 
 
 {put,xml;noorbitals,nobasis}
 Commands initialized (841), CPU time= 0.01 sec, 704 directives.
 Default parameters read. Elapsed time= 0.08 sec

 Checking input...
 Passed
1


                                         ***  PROGRAM SYSTEM MOLPRO  ***
                                       Copyright, TTI GmbH Stuttgart, 2015
                                    Version 2023.1 linked Mon Jun  5 13:27:10 2023


 **********************************************************************************************************************************
 LABEL *                                                                                                                                                                 
  (16 PROC) 64 bit serial version                                                        DATE: 03-Aug-23          TIME: 11:48:42  
 **********************************************************************************************************************************

 SHA1:             9738a14712571edd23541b6d7c4f3a3d766f8287
 **********************************************************************************************************************************

 Memory per process:       805 MW
 Total memory per node:   1074 MW
 Total GA space:           268 MW

 GA preallocation disabled
 GA check enabled

 Geometry recognized as XYZ


 Variable memory set to 805.3 MW

 SETTING BASIS          =    CC-PVTZ


 Recomputing integrals since basis changed


 Using spherical harmonics

 Library entry C      S cc-pVTZ              selected for orbital group  1
 Library entry C      P cc-pVTZ              selected for orbital group  1
 Library entry C      D cc-pVTZ              selected for orbital group  1
 Library entry C      F cc-pVTZ              selected for orbital group  1
 Library entry O      S cc-pVTZ              selected for orbital group  2
 Library entry O      P cc-pVTZ              selected for orbital group  2
 Library entry O      D cc-pVTZ              selected for orbital group  2
 Library entry O      F cc-pVTZ              selected for orbital group  2
 Library entry N      S cc-pVTZ              selected for orbital group  3
 Library entry N      P cc-pVTZ              selected for orbital group  3
 Library entry N      D cc-pVTZ              selected for orbital group  3
 Library entry N      F cc-pVTZ              selected for orbital group  3
 Library entry H      S cc-pVTZ              selected for orbital group  4
 Library entry H      P cc-pVTZ              selected for orbital group  4
 Library entry H      D cc-pVTZ              selected for orbital group  4


 PROGRAM * SEWARD (Integral evaluation for generally contracted gaussian basis sets)     Author: Roland Lindh, 1990

 Geometry written to block  1 of record 700


 Point group  Cs  



 ATOMIC COORDINATES

 NR  ATOM    CHARGE       X              Y              Z

   1  C       6.00    1.221592534    1.251088683    0.000000000
   2  C       6.00    1.172748292   -1.374497796    0.000000000
   3  O       8.00   -2.716708393   -1.980497966    0.000000000
   4  N       7.00   -3.428554542    0.239378827    0.000000000
   5  N       7.00   -2.423982011    2.216448754    0.000000000
   6  H       1.00    1.662375064    2.251348651    1.730125714
   7  H       1.00    1.662375064    2.251348651   -1.730125714
   8  H       1.00    1.425076977   -2.427308893    1.734069233
   9  H       1.00    1.425076977   -2.427308893   -1.734069233

 Bond lengths in Bohr (Angstrom)

 1-2  2.626040769  1-5  3.771224447  1-6  2.046495597  1-7  2.046495597  2-8  2.044279109
     ( 1.389640930)     ( 1.995646035)     ( 1.082958832)     ( 1.082958832)     ( 1.081785917)

 2-9  2.044279109  3-4  2.331218119  4-5  2.217649988
     ( 1.081785917)     ( 1.233627502)     ( 1.173529835)

 Bond angles

  1-2-8  120.83841687   1-2-9  120.83841687   1-5-4  102.10396580   2-1-5  103.76593409

  2-1-6  119.51746247   2-1-7  119.51746247   3-4-5  135.28489323   5-1-6   94.76637282

  5-1-7   94.76637282   6-1-7  115.43155810   8-2-9  116.04467695

 NUCLEAR CHARGE:                   38
 NUMBER OF PRIMITIVE AOS:         303
 NUMBER OF SYMMETRY AOS:          274
 NUMBER OF CONTRACTIONS:          206   (  128A'  +   78A"  )
 NUMBER OF INNER CORE ORBITALS:     0   (    0A'  +    0A"  )
 NUMBER OF OUTER CORE ORBITALS:     5   (    5A'  +    0A"  )
 NUMBER OF VALENCE ORBITALS:       24   (   17A'  +    7A"  )


 NUCLEAR REPULSION ENERGY  166.89563664


 Eigenvalues of metric

         1 0.436E-03 0.102E-02 0.137E-02 0.146E-02 0.176E-02 0.216E-02 0.249E-02 0.365E-02
         2 0.898E-03 0.179E-02 0.415E-02 0.976E-02 0.102E-01 0.127E-01 0.254E-01 0.271E-01


 Contracted 2-electron integrals neglected if value below      1.0D-11
 AO integral compression algorithm  1   Integral accuracy      1.0D-11

     473.694 MB (compressed) written to integral file ( 45.6%)


 NUMBER OF SORTED TWO-ELECTRON INTEGRALS:  115142925.     BUFFER LENGTH:  32768
 NUMBER OF SEGMENTS:   8  SEGMENT LENGTH:   15998004      RECORD LENGTH: 524288

 Memory used in sort:      16.56 MW

 SORT1 READ   129715379. AND WROTE   109769139. INTEGRALS IN    319 RECORDS. CPU TIME:     1.93 SEC, REAL TIME:     2.93 SEC
 SORT2 READ   109769139. AND WROTE   115142925. INTEGRALS IN   1807 RECORDS. CPU TIME:     2.31 SEC, REAL TIME:     2.84 SEC

 FILE SIZES:   FILE 1:   505.0 MBYTE,  FILE 4:  1338.0 MBYTE,   TOTAL:   1843.0 MBYTE

 OPERATOR DM      FOR CENTER  0  COORDINATES:    0.000000    0.000000    0.000000


 **********************************************************************************************************************************
 DATASETS  * FILE   NREC   LENGTH (MB)   RECORD NAMES
              1      19      446.84       500      610      700      900      950      970     1000      129      960     1100   
                                          VAR    BASINP    GEOM    SYMINP    ZMAT    AOBASIS   BASIS     P2S    ABASIS      S 
                                         1400     1410     1200     1210     1080     1600     1650     1300     1700   
                                           T        V       H0       H01     AOSYM     SMH    MOLCAS    ERIS     OPER   

 PROGRAMS   *        TOTAL       INT
 CPU TIMES  *        16.64     16.51
 REAL TIME  *        20.47 SEC
 DISK USED  *         1.72 GB
 **********************************************************************************************************************************


 Program * Restricted Hartree-Fock

 Orbital guess generated from atomic densities. Full valence occupancy:   22   7

 Initial occupancy:  15   4

 NELEC=   38   SYM=1   MS2= 0   THRE=1.0D-08   THRD=3.2D-06   THRG=3.2D-06  HFMA2=F  DIIS_START=2   DIIS_MAX=10   DIIS_INCORE=F

 Level shifts:    0.00 (CLOSED)    0.00 (OPEN)    0.30 (GAP_MIN)

 ITER           ETOT              DE          GRAD        DDIFF     DIIS  NEXP   TIME(IT)  TIME(TOT)  DIAG
   1     -261.61445329    -261.61445329     0.00D+00     0.76D-01     0     0       0.91      1.78    start
   2     -261.66620448      -0.05175119     0.75D-02     0.11D-01     1     0       0.92      2.70    diag
   3     -261.72566099      -0.05945651     0.63D-02     0.51D-02     2     0       0.92      3.62    diag
   4     -261.72798606      -0.00232506     0.74D-03     0.11D-02     3     0       0.90      4.52    diag
   5     -261.72845913      -0.00047308     0.33D-03     0.49D-03     4     0       0.98      5.50    diag
   6     -261.72863228      -0.00017315     0.16D-03     0.30D-03     5     0       0.92      6.42    diag
   7     -261.72872561      -0.00009333     0.12D-03     0.23D-03     6     0       0.94      7.36    diag
   8     -261.72876550      -0.00003989     0.55D-04     0.18D-03     7     0       0.96      8.32    fixocc
   9     -261.72877927      -0.00001376     0.31D-04     0.12D-03     8     0       0.96      9.28    diag
  10     -261.72878285      -0.00000358     0.16D-04     0.66D-04     9     0       0.95     10.23    diag/orth
  11     -261.72878341      -0.00000056     0.61D-05     0.28D-04     9     0       0.95     11.18    diag
  12     -261.72878347      -0.00000006     0.23D-05     0.77D-05     9     0       0.90     12.08    diag
  13     -261.72878347      -0.00000001     0.81D-06     0.23D-05     9     0       0.90     12.98    diag
  14     -261.72878347      -0.00000000     0.33D-06     0.45D-06     0     0       0.92     13.90    diag

 Final occupancy:  15   4

 !RHF STATE 1.1 Energy               -261.728783472506
  RHF One-electron energy            -686.720235535928
  RHF Two-electron energy             258.095815427905
  RHF Kinetic energy                  261.263580446810
  RHF Nuclear energy                  166.895636635517
  RHF Virial quotient                  -1.001780588878

 !RHF STATE 1.1 Dipole moment           0.89200093    -0.02454497     0.00000000
 Dipole moment /Debye                   2.26724022    -0.06238709     0.00000000

 Orbital energies:

           1.1          2.1          3.1          4.1          5.1          6.1          7.1          8.1          9.1         10.1
    -20.620971   -15.742717   -15.669992   -11.289132   -11.254353    -1.541276    -1.320052    -1.060615    -0.839273    -0.809727

          11.1         12.1         13.1         14.1         15.1         16.1         17.1
     -0.707867    -0.654952    -0.601271    -0.448148    -0.366335     0.076765     0.144064

           1.2          2.2          3.2          4.2          5.2          6.2
     -0.697412    -0.649019    -0.542440    -0.448753     0.161000     0.183180


 HOMO     15.1    -0.366335 =      -9.9685eV
 LUMO     16.1     0.076765 =       2.0889eV
 LUMO-HOMO         0.443100 =      12.0574eV

 Orbitals saved in record  2100.2


 **********************************************************************************************************************************
 DATASETS  * FILE   NREC   LENGTH (MB)   RECORD NAMES
              1      19      446.84       500      610      700      900      950      970     1000      129      960     1100   
                                          VAR    BASINP    GEOM    SYMINP    ZMAT    AOBASIS   BASIS     P2S    ABASIS      S 
                                         1400     1410     1200     1210     1080     1600     1650     1300     1700   
                                           T        V       H0       H01     AOSYM     SMH    MOLCAS    ERIS     OPER   

              2       4        0.88       700     1000      520     2100   
                                         GEOM     BASIS   MCVARS     RHF  

 PROGRAMS   *        TOTAL    HF-SCF       INT
 CPU TIMES  *        30.55     13.91     16.51
 REAL TIME  *        40.66 SEC
 DISK USED  *         1.72 GB
 **********************************************************************************************************************************


 PROGRAM * CCSD (Closed-shell coupled cluster)     Authors: C. Hampel, H.-J. Werner, 1991, M. Deegan, P.J. Knowles, 1992


 Convergence thresholds:  THRVAR = 1.00D-08  THRDEN = 1.00D-06

 CCSD(T)     terms to be evaluated (factor= 1.000)


 Number of core orbitals:           5 (   5   0 )
 Number of closed-shell orbitals:  14 (  10   4 )
 Number of external orbitals:     187 ( 113  74 )

 Molecular orbitals read from record     2100.2  Type=RHF/CANONICAL  

 Number of N-1 electron functions:              14
 Number of N-2 electron functions:             105
 Number of singly external CSFs:              1426
 Number of doubly external CSFs:           1728479
 Total number of CSFs:                     1729906

 Length of J-op  integral file:               0.00 MB
 Length of K-op  integral file:               1.61 MB
 Length of 3-ext integral record:             0.00 MB

 Memory could be reduced to 58.42 Mwords without degradation in triples

 Integral transformation finished. Total CPU:   6.16 sec, npass=  1  Memory used:  22.91 MW

 Reference energy:                   -261.72878347

 MP2 singlet pair energy:              -0.62301712
 MP2 triplet pair energy:              -0.39906933
 MP2 correlation energy:               -1.02208645
 MP2 total energy:                   -262.75086992

 SCS-MP2 correlation energy:           -0.99593035   (PS=  1.200000  PT=  0.333333)
 SCS-MP2 total energy:               -262.72471382

 ITER.      SQ.NORM     CORR.ENERGY   TOTAL ENERGY   ENERGY CHANGE        DEN1      VAR(S)    VAR(P)  DIIS     TIME  TIME/IT
   1      1.30217044    -1.01462968  -262.74341315     0.00745677     0.05470901  0.13D-01  0.14D-01  1  1    44.04     7.51
   2      1.33038592    -1.01074352  -262.73952699     0.00388616    -0.03408161  0.56D-03  0.13D-02  2  2    51.34     7.80
   3      1.34593916    -1.01184647  -262.74062994    -0.00110295    -0.00623933  0.56D-03  0.14D-03  3  3    58.78     7.79
   4      1.35362535    -1.01165446  -262.74043793     0.00019201    -0.00235166  0.11D-03  0.33D-04  4  4    66.08     7.75
   5      1.36044109    -1.01180591  -262.74058938    -0.00015145    -0.00133839  0.24D-04  0.49D-05  5  5    73.35     7.72
   6      1.36288066    -1.01174267  -262.74052614     0.00006324    -0.00027273  0.40D-05  0.11D-05  6  6    80.65     7.70
   7      1.36380588    -1.01172041  -262.74050388     0.00002226    -0.00005971  0.10D-05  0.22D-06  6  2    88.00     7.71
   8      1.36406424    -1.01171792  -262.74050139     0.00000249    -0.00000529  0.16D-06  0.60D-07  6  1    95.50     7.73
   9      1.36413165    -1.01171888  -262.74050235    -0.00000096     0.00001075  0.42D-07  0.96D-08  6  4   102.94     7.73
  10      1.36417357    -1.01172026  -262.74050373    -0.00000138    -0.00001031  0.71D-08  0.26D-08  6  3   110.33     7.73
  11      1.36417209    -1.01172057  -262.74050404    -0.00000031     0.00000182  0.24D-08  0.68D-09  6  5   117.74     7.74
  12      1.36417224    -1.01172122  -262.74050469    -0.00000065    -0.00000008  0.50D-09  0.14D-09  6  6   125.22     7.74

 Norm of t1 vector:      0.17532808      S-energy:     0.00000179      T1 diagnostic:  0.02342920
                                                                       D1 diagnostic:  0.09152362
                                                                       D2 diagnostic:  0.20184975 (external, symmetry=1)

 Singles amplitudes (print threshold =  0.500E-01):

         I         SYM. A    A   T(IA)

         9         1         1     -0.07644303

 Doubles amplitudes (print threshold =  0.500E-01):

         I         J         SYM. A    SYM. B    A         B      T(IJ, AB)

         9         9         1         1         1         1     -0.07817552
        10        10         1         1         1         1     -0.07096753
        14        14         2         2         1         1     -0.06025436


 Total CPU time for triples:    179.59 sec


 RESULTS
 =======

  Reference energy                   -261.728783472506
  CCSD singlet pair energy             -0.671350596083
  CCSD triplet pair energy             -0.340372418434
  CCSD correlation energy              -1.011721220690

  Triples (T) contribution             -0.059757674444
  Total correlation energy             -1.071478895134

  CCSD total energy                  -262.740504693196
  CCSD[T] energy                     -262.804196401629
  CCSD-T energy                      -262.799398406215
 !CCSD(T) total energy               -262.800262367640

 Timing summary (sec):

 STEP                 CPU(USER)    SYS     CPU(TOT)    WALL
 Transformation          6.26      0.72      6.98      7.59
 CCSD iterations       119.08      3.34    122.42     93.09
 Triples               179.59      5.86    185.45    187.31

 Program statistics:

 Available memory in ccsd:               805305569
 Min. memory needed in ccsd:               4423678
 Max. memory used in ccsd:                 5975437
 Max. memory used in cckext:               5999536 (12 integral passes)



 **********************************************************************************************************************************
 DATASETS  * FILE   NREC   LENGTH (MB)   RECORD NAMES
              1      20      649.41       500      610      700      900      950      970     1000      129      960     1100   
                                          VAR    BASINP    GEOM    SYMINP    ZMAT    AOBASIS   BASIS     P2S    ABASIS      S 
                                         1400     1410     1200     1210     1080     1600     1650     1300     1700     1380   
                                           T        V       H0       H01     AOSYM     SMH    MOLCAS    ERIS     OPER     JKOP   

              2       4        0.88       700     1000      520     2100   
                                         GEOM     BASIS   MCVARS     RHF  

 PROGRAMS   *        TOTAL   CCSD(T)    HF-SCF       INT
 CPU TIMES  *       304.73    274.16     13.91     16.51
 REAL TIME  *       328.78 SEC
 DISK USED  *         1.72 GB
 **********************************************************************************************************************************

 Dump information in style XML to xml output                                                                      

 Orbitals will not be exported.

 **********************************************************************************************************************************

 CCSD(T)/cc-pVTZ energy=   -262.800262367640

         CCSD(T)          HF-SCF
   -262.80026237   -261.72878347
 **********************************************************************************************************************************
 Molpro calculation terminated
