
 Working directory              : /home/jovyan/scratch/molpro.oWiTZjiBmw/
 Global scratch directory       : /home/jovyan/scratch/molpro.oWiTZjiBmw/
 Wavefunction directory         : /home/jovyan/wfu/
 Main file repository           : /home/jovyan/scratch/molpro.oWiTZjiBmw/

 id        : cardiff

 Nodes                nprocs
 jupyter-c-2efrancisan    1
 GA implementation: MPI file
 GA implementation (serial work in mppx): MPI file

 Using customized tuning parameters: mindgm=1; mindgv=20; mindgc=4; mindgr=1; noblas=0; minvec=7
 default implementation of scratch files=df  


 Variables initialized (1031), CPU time= 0.01 sec
 
 
 
 geometry={
 12
  4H2OTS (Full point group D2d)
  O -1.703649 0.000000 0.039217
  H 0.935877 0.935877 0.000000
  H -0.935877 0.935877 0.000000
  O 0.000000 1.703649 -0.039217
  H -0.935877 -0.935877 0.000000
  O 0.000000 -1.703649 -0.039217
  H 0.935877 -0.935877 0.000000
  O 1.703649 0.000000 0.039217
  H 2.295559 0.000000 -0.717948
  H 0.000000 2.295559 0.717948
  H -2.295559 0.000000 -0.717948
  H 0.000000 -2.295559 0.717948
 }
 basis=cc-pVTZ
 angstrom
 
 
 hf; ccsd(t)
 
 
 
 {put,xml;noorbitals,nobasis}
 Commands initialized (841), CPU time= 0.01 sec, 704 directives.
 Default parameters read. Elapsed time= 0.08 sec

 Checking input...
 Passed
1


                                         ***  PROGRAM SYSTEM MOLPRO  ***
                                       Copyright, TTI GmbH Stuttgart, 2015
                                    Version 2023.1 linked Mon Jun  5 13:27:10 2023


 **********************************************************************************************************************************
 LABEL *                                                                                                                                                                 
  (16 PROC) 64 bit serial version                                                        DATE: 03-Aug-23          TIME: 14:00:17  
 **********************************************************************************************************************************

 SHA1:             9738a14712571edd23541b6d7c4f3a3d766f8287
 **********************************************************************************************************************************

 Memory per process:       805 MW
 Total memory per node:   1074 MW
 Total GA space:           268 MW

 GA preallocation disabled
 GA check enabled

 Geometry recognized as XYZ


 Variable memory set to 805.3 MW

 SETTING BASIS          =    CC-PVTZ


 Recomputing integrals since basis changed


 Using spherical harmonics

 Library entry O      S cc-pVTZ              selected for orbital group  1
 Library entry O      P cc-pVTZ              selected for orbital group  1
 Library entry O      D cc-pVTZ              selected for orbital group  1
 Library entry O      F cc-pVTZ              selected for orbital group  1
 Library entry H      S cc-pVTZ              selected for orbital group  2
 Library entry H      P cc-pVTZ              selected for orbital group  2
 Library entry H      D cc-pVTZ              selected for orbital group  2


 PROGRAM * SEWARD (Integral evaluation for generally contracted gaussian basis sets)     Author: Roland Lindh, 1990

 Geometry written to block  1 of record 700


 Point group  C2v 



 ATOMIC COORDINATES

 NR  ATOM    CHARGE       X              Y              Z

   1  O       8.00   -3.219430022    0.000000000    0.074109389
   2  O       8.00    3.219430022    0.000000000    0.074109389
   3  H       1.00    1.768551216    1.768551216    0.000000000
   4  H       1.00   -1.768551216    1.768551216    0.000000000
   5  H       1.00   -1.768551216   -1.768551216    0.000000000
   6  H       1.00    1.768551216   -1.768551216    0.000000000
   7  O       8.00    0.000000000    3.219430022   -0.074109389
   8  O       8.00    0.000000000   -3.219430022   -0.074109389
   9  H       1.00    4.337977813    0.000000000   -1.356725092
  10  H       1.00   -4.337977813    0.000000000   -1.356725092
  11  H       1.00    0.000000000    4.337977813    1.356725092
  12  H       1.00    0.000000000   -4.337977813    1.356725092

 Bond lengths in Bohr (Angstrom)

  1- 4  2.288736533   1- 5  2.288736533   1-10  1.816159815   2- 3  2.288736533   2- 6  2.288736533
       ( 1.211147215)       ( 1.211147215)       ( 0.961070385)       ( 1.211147215)       ( 1.211147215)

 2-9  1.816159815  3-7  2.288736533  4-7  2.288736533  5-8  2.288736533  6-8  2.288736533
     ( 0.961070385)     ( 1.211147215)     ( 1.211147215)     ( 1.211147215)     ( 1.211147215)

  7-11  1.816159815   8-12  1.816159815
       ( 0.961070385)       ( 0.961070385)

 Bond angles

  1-4-7  168.73526387   1-5-8  168.73526387   2-3-7  168.73526387   2-6-8  168.73526387

  3- 2- 6  101.19744878   3- 2- 9  111.40224372   3- 7- 4  101.19744878   3- 7-11  111.40224372

  4- 1- 5  101.19744878   4- 1-10  111.40224372   4- 7-11  111.40224372   5- 1-10  111.40224372

  5- 8- 6  101.19744878   5- 8-12  111.40224372   6- 2- 9  111.40224372   6- 8-12  111.40224372

 NUCLEAR CHARGE:                   40
 NUMBER OF PRIMITIVE AOS:         324
 NUMBER OF SYMMETRY AOS:          296
 NUMBER OF CONTRACTIONS:          232   (   74A1  +   58B1  +   58B2  +   42A2  )
 NUMBER OF INNER CORE ORBITALS:     0   (    0A1  +    0B1  +    0B2  +    0A2  )
 NUMBER OF OUTER CORE ORBITALS:     4   (    2A1  +    1B1  +    1B2  +    0A2  )
 NUMBER OF VALENCE ORBITALS:       24   (    9A1  +    6B1  +    6B2  +    3A2  )


 NUCLEAR REPULSION ENERGY  155.37845946


 Eigenvalues of metric

         1 0.111E-02 0.185E-02 0.382E-02 0.494E-02 0.631E-02 0.817E-02 0.840E-02 0.122E-01
         2 0.136E-02 0.386E-02 0.626E-02 0.843E-02 0.113E-01 0.243E-01 0.246E-01 0.423E-01
         3 0.136E-02 0.386E-02 0.626E-02 0.843E-02 0.113E-01 0.243E-01 0.246E-01 0.423E-01
         4 0.398E-02 0.116E-01 0.159E-01 0.228E-01 0.489E-01 0.612E-01 0.626E-01 0.795E-01


 Contracted 2-electron integrals neglected if value below      1.0D-11
 AO integral compression algorithm  1   Integral accuracy      1.0D-11

     422.052 MB (compressed) written to integral file ( 47.5%)


 NUMBER OF SORTED TWO-ELECTRON INTEGRALS:   92613410.     BUFFER LENGTH:  32768
 NUMBER OF SEGMENTS:   6  SEGMENT LENGTH:   15999672      RECORD LENGTH: 524288

 Memory used in sort:      16.56 MW

 SORT1 READ   111050388. AND WROTE    88253149. INTEGRALS IN    256 RECORDS. CPU TIME:     2.91 SEC, REAL TIME:     3.86 SEC
 SORT2 READ    88253149. AND WROTE    92613410. INTEGRALS IN   1610 RECORDS. CPU TIME:     2.31 SEC, REAL TIME:     2.81 SEC

 FILE SIZES:   FILE 1:   453.4 MBYTE,  FILE 4:  1073.8 MBYTE,   TOTAL:   1527.2 MBYTE

 OPERATOR DM      FOR CENTER  0  COORDINATES:    0.000000    0.000000    0.000000


 **********************************************************************************************************************************
 DATASETS  * FILE   NREC   LENGTH (MB)   RECORD NAMES
              1      19      382.66       500      610      700      900      950      970     1000      129      960     1100   
                                          VAR    BASINP    GEOM    SYMINP    ZMAT    AOBASIS   BASIS     P2S    ABASIS      S 
                                         1400     1410     1200     1210     1080     1600     1650     1300     1700   
                                           T        V       H0       H01     AOSYM     SMH    MOLCAS    ERIS     OPER   

 PROGRAMS   *        TOTAL       INT
 CPU TIMES  *        18.06     17.92
 REAL TIME  *        21.43 SEC
 DISK USED  *         1.42 GB
 **********************************************************************************************************************************


 Program * Restricted Hartree-Fock

 Orbital guess generated from atomic densities. Full valence occupancy:   11   7   7   3

 Initial occupancy:   8   5   5   2

 NELEC=   40   SYM=1   MS2= 0   THRE=1.0D-08   THRD=3.2D-06   THRG=3.2D-06  HFMA2=F  DIIS_START=2   DIIS_MAX=10   DIIS_INCORE=F

 Level shifts:    0.00 (CLOSED)    0.00 (OPEN)    0.30 (GAP_MIN)

 ITER           ETOT              DE          GRAD        DDIFF     DIIS  NEXP   TIME(IT)  TIME(TOT)  DIAG
   1     -304.09057205    -304.09057205     0.00D+00     0.10D+00     0     0       0.41      0.81    start
   2     -304.16667986      -0.07610781     0.11D-01     0.14D-01     1     0       0.41      1.22    diag
   3     -304.18779580      -0.02111594     0.56D-02     0.46D-02     2     0       0.42      1.64    diag
   4     -304.18836378      -0.00056798     0.65D-03     0.75D-03     3     0       0.42      2.06    diag
   5     -304.18839819      -0.00003441     0.13D-03     0.17D-03     4     0       0.42      2.48    diag
   6     -304.18840075      -0.00000256     0.31D-04     0.52D-04     5     0       0.43      2.91    diag
   7     -304.18840083      -0.00000008     0.55D-05     0.12D-04     6     0       0.42      3.33    diag
   8     -304.18840083      -0.00000000     0.86D-06     0.19D-05     7     0       0.43      3.76    fixocc
   9     -304.18840083      -0.00000000     0.16D-06     0.20D-06     0     0       0.41      4.17    diag

 Final occupancy:   8   5   5   2

 !RHF STATE 1.1 Energy               -304.188400833799
  RHF One-electron energy            -730.007868519155
  RHF Two-electron energy             270.441008225309
  RHF Kinetic energy                  303.757613069853
  RHF Nuclear energy                  155.378459460047
  RHF Virial quotient                  -1.001418195777

 !RHF STATE 1.1 Dipole moment           0.00000000     0.00000000     0.00000000
 Dipole moment /Debye                   0.00000000     0.00000000     0.00000000

 Orbital energies:

           1.1          2.1          3.1          4.1          5.1          6.1          7.1          8.1          9.1         10.1
    -20.542487   -20.542438    -1.367200    -1.284157    -0.744891    -0.635085    -0.527015    -0.479790     0.136126     0.196197

           1.2          2.2          3.2          4.2          5.2          6.2          7.2
    -20.542463    -1.326086    -0.717482    -0.571356    -0.480818     0.173651     0.351278

           1.3          2.3          3.3          4.3          5.3          6.3          7.3
    -20.542463    -1.326086    -0.717482    -0.571356    -0.480818     0.173651     0.351278

           1.4          2.4          3.4          4.4
     -0.711241    -0.452215     0.326278     0.581686


 HOMO      2.4    -0.452215 =     -12.3054eV
 LUMO      9.1     0.136126 =       3.7042eV
 LUMO-HOMO         0.588342 =      16.0096eV

 Orbitals saved in record  2100.2


 **********************************************************************************************************************************
 DATASETS  * FILE   NREC   LENGTH (MB)   RECORD NAMES
              1      19      382.66       500      610      700      900      950      970     1000      129      960     1100   
                                          VAR    BASINP    GEOM    SYMINP    ZMAT    AOBASIS   BASIS     P2S    ABASIS      S 
                                         1400     1410     1200     1210     1080     1600     1650     1300     1700   
                                           T        V       H0       H01     AOSYM     SMH    MOLCAS    ERIS     OPER   

              2       4        0.81       700     1000      520     2100   
                                         GEOM     BASIS   MCVARS     RHF  

 PROGRAMS   *        TOTAL    HF-SCF       INT
 CPU TIMES  *        22.24      4.18     17.92
 REAL TIME  *        26.13 SEC
 DISK USED  *         1.42 GB
 **********************************************************************************************************************************


 PROGRAM * CCSD (Closed-shell coupled cluster)     Authors: C. Hampel, H.-J. Werner, 1991, M. Deegan, P.J. Knowles, 1992


 Convergence thresholds:  THRVAR = 1.00D-08  THRDEN = 1.00D-06

 CCSD(T)     terms to be evaluated (factor= 1.000)


 Number of core orbitals:           4 (   2   1   1   0 )
 Number of closed-shell orbitals:  16 (   6   4   4   2 )
 Number of external orbitals:     212 (  66  53  53  40 )

 Molecular orbitals read from record     2100.2  Type=RHF/CANONICAL  

 Number of N-1 electron functions:              16
 Number of N-2 electron functions:             136
 Number of singly external CSFs:               900
 Number of doubly external CSFs:           1442608
 Total number of CSFs:                     1443509

 Length of J-op  integral file:               0.00 MB
 Length of K-op  integral file:               1.02 MB
 Length of 3-ext integral record:             0.00 MB

 Memory could be reduced to 47.59 Mwords without degradation in triples

 Integral transformation finished. Total CPU:   3.41 sec, npass=  1  Memory used:   9.79 MW

 Reference energy:                   -304.18840083

 MP2 singlet pair energy:              -0.68242746
 MP2 triplet pair energy:              -0.42057503
 MP2 correlation energy:               -1.10300250
 MP2 total energy:                   -305.29140333

 SCS-MP2 correlation energy:           -1.08060409   (PS=  1.200000  PT=  0.333333)
 SCS-MP2 total energy:               -305.26900492

 ITER.      SQ.NORM     CORR.ENERGY   TOTAL ENERGY   ENERGY CHANGE        DEN1      VAR(S)    VAR(P)  DIIS     TIME  TIME/IT
   1      1.25371348    -1.11032691  -305.29872774    -0.00732441     0.01586177  0.34D-02  0.40D-02  1  1    30.80     5.17
   2      1.26786931    -1.11110413  -305.29950497    -0.00077722    -0.01969942  0.43D-04  0.44D-03  2  2    35.82     5.31
   3      1.27269080    -1.11121799  -305.29961883    -0.00011386    -0.00339493  0.28D-04  0.19D-04  3  3    40.91     5.34
   4      1.27421213    -1.11120886  -305.29960969     0.00000913    -0.00083974  0.85D-06  0.17D-05  4  4    46.04     5.36
   5      1.27448594    -1.11120293  -305.29960376     0.00000593    -0.00010764  0.28D-06  0.11D-06  5  5    51.21     5.38
   6      1.27454650    -1.11119745  -305.29959828     0.00000548    -0.00001374  0.29D-07  0.13D-07  6  6    56.33     5.39
   7      1.27455844    -1.11119794  -305.29959878    -0.00000050    -0.00000131  0.52D-08  0.20D-08  6  1    61.33     5.39
   8      1.27456143    -1.11119796  -305.29959880    -0.00000002     0.00000032  0.11D-08  0.28D-09  6  3    66.36     5.39

 Norm of t1 vector:      0.07443855      S-energy:    -0.00000070      T1 diagnostic:  0.00930482
                                                                       D1 diagnostic:  0.01988692
                                                                       D2 diagnostic:  0.13448702 (internal)


 Total CPU time for triples:    139.98 sec


 RESULTS
 =======

  Reference energy                   -304.188400833799
  CCSD singlet pair energy             -0.738469515240
  CCSD triplet pair energy             -0.372727752285
  CCSD correlation energy              -1.111197964714

  Triples (T) contribution             -0.039242897257
  Total correlation energy             -1.150440861971

  CCSD total energy                  -305.299598798513
  CCSD[T] energy                     -305.339955906591
  CCSD-T energy                      -305.338152637415
 !CCSD(T) total energy               -305.338841695770

 Timing summary (sec):

 STEP                 CPU(USER)    SYS     CPU(TOT)    WALL
 Transformation          3.49      0.43      3.92      4.52
 CCSD iterations        62.96      2.13     65.09     43.27
 Triples               139.98      5.42    145.40    146.46

 Program statistics:

 Available memory in ccsd:               805305336
 Min. memory needed in ccsd:               3572991
 Max. memory used in ccsd:                 4890051
 Max. memory used in cckext:               4279156 ( 8 integral passes)



 **********************************************************************************************************************************
 DATASETS  * FILE   NREC   LENGTH (MB)   RECORD NAMES
              1      20      550.21       500      610      700      900      950      970     1000      129      960     1100   
                                          VAR    BASINP    GEOM    SYMINP    ZMAT    AOBASIS   BASIS     P2S    ABASIS      S 
                                         1400     1410     1200     1210     1080     1600     1650     1300     1700     1380   
                                           T        V       H0       H01     AOSYM     SMH    MOLCAS    ERIS     OPER     JKOP   

              2       4        0.81       700     1000      520     2100   
                                         GEOM     BASIS   MCVARS     RHF  

 PROGRAMS   *        TOTAL   CCSD(T)    HF-SCF       INT
 CPU TIMES  *       206.16    183.92      4.18     17.92
 REAL TIME  *       220.43 SEC
 DISK USED  *         1.42 GB
 **********************************************************************************************************************************

 Dump information in style XML to xml output                                                                      

 Orbitals will not be exported.

 **********************************************************************************************************************************

 CCSD(T)/cc-pVTZ energy=   -305.338841695770

         CCSD(T)          HF-SCF
   -305.33884170   -304.18840083
 **********************************************************************************************************************************
 Molpro calculation terminated
