
 Working directory              : /home/jovyan/scratch/molpro.H0j1EV5cfB/
 Global scratch directory       : /home/jovyan/scratch/molpro.H0j1EV5cfB/
 Wavefunction directory         : /home/jovyan/wfu/
 Main file repository           : /home/jovyan/scratch/molpro.H0j1EV5cfB/

 id        : cardiff

 Nodes                nprocs
 jupyter-c-2efrancisan    1
 GA implementation: MPI file
 GA implementation (serial work in mppx): MPI file

 Using customized tuning parameters: mindgm=1; mindgv=20; mindgc=4; mindgr=1; noblas=0; minvec=7
 default implementation of scratch files=df  


 Variables initialized (1031), CPU time= 0.00 sec
 
 
 
 geometry={
 9
    C   -0.01176315610686      0.01965847235270      1.44907123696768
    C   0.02897417000745      0.30760188938184     -0.02809299349958
    N   -1.16421746089559      0.02649414288721     -0.78157818723604
    O   0.99400882632339      0.75831487216553     -0.56649944908317
    H   -1.40442741462843     -0.95232999431478     -0.68039484336666
    H   -1.93900803841296      0.53566898470082     -0.37443388798065
    H   -0.75177102971163      0.65775865221104      1.92690831006394
    H   -0.32593951812022     -1.00685915644777      1.63148956854443
    H   0.95840162154485      0.20296313706342      1.89519724559006
 }
 basis=cc-pVTZ
 angstrom
 
 
 hf
 
 
 
 {put,xml;noorbitals,nobasis}
 Commands initialized (841), CPU time= 0.01 sec, 704 directives.
 Default parameters read. Elapsed time= 0.08 sec

 Checking input...
 Passed
1


                                         ***  PROGRAM SYSTEM MOLPRO  ***
                                       Copyright, TTI GmbH Stuttgart, 2015
                                    Version 2023.1 linked Mon Jun  5 13:27:10 2023


 **********************************************************************************************************************************
 LABEL *                                                                                                                                                                 
  (16 PROC) 64 bit serial version                                                        DATE: 03-Aug-23          TIME: 10:02:11  
 **********************************************************************************************************************************

 SHA1:             9738a14712571edd23541b6d7c4f3a3d766f8287
 **********************************************************************************************************************************

 Memory per process:       805 MW
 Total memory per node:   1074 MW
 Total GA space:           268 MW

 GA preallocation disabled
 GA check enabled

 Geometry recognized as XYZ


 Variable memory set to 805.3 MW

 SETTING BASIS          =    CC-PVTZ


 Recomputing integrals since basis changed


 Using spherical harmonics

 Library entry C      S cc-pVTZ              selected for orbital group  1
 Library entry C      P cc-pVTZ              selected for orbital group  1
 Library entry C      D cc-pVTZ              selected for orbital group  1
 Library entry C      F cc-pVTZ              selected for orbital group  1
 Library entry N      S cc-pVTZ              selected for orbital group  2
 Library entry N      P cc-pVTZ              selected for orbital group  2
 Library entry N      D cc-pVTZ              selected for orbital group  2
 Library entry N      F cc-pVTZ              selected for orbital group  2
 Library entry O      S cc-pVTZ              selected for orbital group  3
 Library entry O      P cc-pVTZ              selected for orbital group  3
 Library entry O      D cc-pVTZ              selected for orbital group  3
 Library entry O      F cc-pVTZ              selected for orbital group  3
 Library entry H      S cc-pVTZ              selected for orbital group  4
 Library entry H      P cc-pVTZ              selected for orbital group  4
 Library entry H      D cc-pVTZ              selected for orbital group  4


 PROGRAM * SEWARD (Integral evaluation for generally contracted gaussian basis sets)     Author: Roland Lindh, 1990

 Geometry written to block  1 of record 700


 Point group  C1  



 ATOMIC COORDINATES

 NR  ATOM    CHARGE       X              Y              Z

   1  C       6.00   -0.022229143    0.037149129    2.738347773
   2  C       6.00    0.054753246    0.581283326   -0.053088064
   3  N       7.00   -2.200052151    0.050066674   -1.476968719
   4  O       8.00    1.878404447    1.433007425   -1.070528809
   5  H       1.00   -2.653983176   -1.799642870   -1.285759911
   6  H       1.00   -3.664194146    1.012267675   -0.707577500
   7  H       1.00   -1.420641355    1.242983709    3.641328973
   8  H       1.00   -0.615936422   -1.902688052    3.083068460
   9  H       1.00    1.811116582    0.383544742    3.581403746

 Bond lengths in Bohr (Angstrom)

 1-2  2.845017108  1-7  2.055472888  1-8  2.057738801  1-9  2.047410522  2-3  2.719149615
     ( 1.505518218)     ( 1.087709410)     ( 1.088908479)     ( 1.083442989)     ( 1.438912009)

 2-4  2.255287856  3-5  1.914168117  3-6  1.913506048
     ( 1.193446937)     ( 1.012934145)     ( 1.012583794)

 Bond angles

  1-2-3  116.99962754   1-2-4  122.46262043   2-1-7  109.70881477   2-1-8  110.63884846

  2-1-9  110.32982907   2-3-5  109.45831102   2-3-6  109.00850362   3-2-4  120.53528120

  5-3-6  105.32516510   7-1-8  106.44801794   7-1-9  109.21170946   8-1-9  110.41823028

 NUCLEAR CHARGE:                   32
 NUMBER OF PRIMITIVE AOS:         273
 NUMBER OF SYMMETRY AOS:          248
 NUMBER OF CONTRACTIONS:          190   (  190A   )
 NUMBER OF INNER CORE ORBITALS:     0   (    0A   )
 NUMBER OF OUTER CORE ORBITALS:     4   (    4A   )
 NUMBER OF VALENCE ORBITALS:       21   (   21A   )


 NUCLEAR REPULSION ENERGY  121.23686839


 Eigenvalues of metric

         1 0.891E-03 0.933E-03 0.133E-02 0.156E-02 0.175E-02 0.211E-02 0.218E-02 0.311E-02


 Contracted 2-electron integrals neglected if value below      1.0D-11
 AO integral compression algorithm  1   Integral accuracy      1.0D-11

     664.011 MB (compressed) written to integral file ( 45.7%)


 NUMBER OF SORTED TWO-ELECTRON INTEGRALS:  164629585.     BUFFER LENGTH:  32768
 NUMBER OF SEGMENTS:  11  SEGMENT LENGTH:   15999503      RECORD LENGTH: 524288

 Memory used in sort:      16.56 MW

 SORT1 READ   181646041. AND WROTE   155388184. INTEGRALS IN    450 RECORDS. CPU TIME:     2.07 SEC, REAL TIME:     4.31 SEC
 SORT2 READ   155388184. AND WROTE   164629585. INTEGRALS IN   2533 RECORDS. CPU TIME:     2.50 SEC, REAL TIME:     3.14 SEC

 FILE SIZES:   FILE 1:   695.5 MBYTE,  FILE 4:  1887.5 MBYTE,   TOTAL:   2583.0 MBYTE

 OPERATOR DM      FOR CENTER  0  COORDINATES:    0.000000    0.000000    0.000000


 **********************************************************************************************************************************
 DATASETS  * FILE   NREC   LENGTH (MB)   RECORD NAMES
              1      19      606.20       500      610      700      900      950      970     1000      129      960     1100   
                                          VAR    BASINP    GEOM    SYMINP    ZMAT    AOBASIS   BASIS     P2S    ABASIS      S 
                                         1400     1410     1200     1210     1080     1600     1650     1300     1700   
                                           T        V       H0       H01     AOSYM     SMH    MOLCAS    ERIS     OPER   

 PROGRAMS   *        TOTAL       INT
 CPU TIMES  *        15.20     15.07
 REAL TIME  *        21.63 SEC
 DISK USED  *         2.41 GB
 **********************************************************************************************************************************


 Program * Restricted Hartree-Fock

 Orbital guess generated from atomic densities. Full valence occupancy:   25

 Initial occupancy:  16

 NELEC=   32   SYM=1   MS2= 0   THRE=1.0D-08   THRD=3.2D-06   THRG=3.2D-06  HFMA2=F  DIIS_START=2   DIIS_MAX=10   DIIS_INCORE=F

 Level shifts:    0.00 (CLOSED)    0.00 (OPEN)    0.30 (GAP_MIN)

 ITER           ETOT              DE          GRAD        DDIFF     DIIS  NEXP   TIME(IT)  TIME(TOT)  DIAG
   1     -207.92690384    -207.92690384     0.00D+00     0.56D-01     0     0       1.74      3.43    start
   2     -207.99338099      -0.06647714     0.62D-02     0.89D-02     1     0       1.73      5.16    diag
   3     -208.03036032      -0.03697933     0.45D-02     0.35D-02     2     0       1.73      6.89    diag
   4     -208.03224360      -0.00188328     0.67D-03     0.79D-03     3     0       1.75      8.64    diag
   5     -208.03253704      -0.00029344     0.25D-03     0.34D-03     4     0       1.75     10.39    diag
   6     -208.03257066      -0.00003362     0.75D-04     0.12D-03     5     0       1.72     12.11    diag
   7     -208.03257704      -0.00000638     0.32D-04     0.58D-04     6     0       1.75     13.86    diag
   8     -208.03257814      -0.00000110     0.13D-04     0.24D-04     7     0       1.75     15.61    fixocc
   9     -208.03257826      -0.00000012     0.38D-05     0.92D-05     8     0       1.81     17.42    diag
  10     -208.03257826      -0.00000000     0.62D-06     0.14D-05     9     0       1.75     19.17    diag/orth
  11     -208.03257826      -0.00000000     0.14D-06     0.24D-06     0     0       1.76     20.93    diag

 Final occupancy:  16

 !RHF STATE 1.1 Energy               -208.032578257916
  RHF One-electron energy            -523.252590925174
  RHF Two-electron energy             193.983144277972
  RHF Kinetic energy                  207.827848984706
  RHF Nuclear energy                  121.236868389286
  RHF Virial quotient                  -1.000985090661

 !RHF STATE 1.1 Dipole moment          -1.10873519    -0.62178434     1.17308075
 Dipole moment /Debye                  -2.81812377    -1.58041816     2.98167385

 Orbital energies:

           1.1          2.1          3.1          4.1          5.1          6.1          7.1          8.1          9.1         10.1
    -20.548319   -15.563184   -11.355557   -11.241539    -1.407827    -1.197032    -1.009868    -0.772540    -0.685781    -0.678114

          11.1         12.1         13.1         14.1         15.1         16.1         17.1         18.1
     -0.639269    -0.591563    -0.576271    -0.501961    -0.449055    -0.425247     0.115473     0.147758


 HOMO     16.1    -0.425247 =     -11.5716eV
 LUMO     17.1     0.115473 =       3.1422eV
 LUMO-HOMO         0.540720 =      14.7138eV

 Orbitals saved in record  2100.2


 **********************************************************************************************************************************
 DATASETS  * FILE   NREC   LENGTH (MB)   RECORD NAMES
              1      19      606.20       500      610      700      900      950      970     1000      129      960     1100   
                                          VAR    BASINP    GEOM    SYMINP    ZMAT    AOBASIS   BASIS     P2S    ABASIS      S 
                                         1400     1410     1200     1210     1080     1600     1650     1300     1700   
                                           T        V       H0       H01     AOSYM     SMH    MOLCAS    ERIS     OPER   

              2       4        1.09       700     1000      520     2100   
                                         GEOM     BASIS   MCVARS     RHF  

 PROGRAMS   *        TOTAL    HF-SCF       INT
 CPU TIMES  *        36.13     20.93     15.07
 REAL TIME  *        44.83 SEC
 DISK USED  *         2.41 GB
 **********************************************************************************************************************************

 Dump information in style XML to xml output                                                                      

 Orbitals will not be exported.

 **********************************************************************************************************************************

 HF/cc-pVTZ energy=   -208.032578257916

          HF-SCF
   -208.03257826
 **********************************************************************************************************************************
 Molpro calculation terminated
