
 Working directory              : /home/jovyan/scratch/molpro.6dyhp9Y8ZG/
 Global scratch directory       : /home/jovyan/scratch/molpro.6dyhp9Y8ZG/
 Wavefunction directory         : /home/jovyan/wfu/
 Main file repository           : /home/jovyan/scratch/molpro.6dyhp9Y8ZG/

 id        : cardiff

 Nodes                nprocs
 jupyter-c-2efrancisan    1
 GA implementation: MPI file
 GA implementation (serial work in mppx): MPI file

 Using customized tuning parameters: mindgm=1; mindgv=20; mindgc=4; mindgr=1; noblas=0; minvec=7
 default implementation of scratch files=df  


 Variables initialized (1031), CPU time= 0.01 sec
 
 
 
 geometry={
           11
     C         -0.09812376     -0.86171422      0.74510227
     C         -0.09812376     -0.86171422     -0.74510227
     C         -0.07649575      0.48854926      1.14927041
     C         -0.07649575      0.48854926     -1.14927041
     C         -0.06639375      1.29138755      0.00000000
     H          0.96023961     -1.09286530      0.00000000
     H         -0.24947482     -1.74512953      1.35355848
     H         -0.24947482     -1.74512953     -1.35355848
     H         -0.02538874      0.83198439      2.17492777
     H         -0.02538874      0.83198439     -2.17492777
     H          0.00512027      2.37409794      0.00000000
 }
 basis=cc-pVTZ
 angstrom
 
 
 hf; papt;mp2
 
 
 
 {put,xml;noorbitals,nobasis}
 Commands initialized (841), CPU time= 0.00 sec, 704 directives.
 Default parameters read. Elapsed time= 0.08 sec

 Checking input...
 Passed
1


                                         ***  PROGRAM SYSTEM MOLPRO  ***
                                       Copyright, TTI GmbH Stuttgart, 2015
                                    Version 2023.1 linked Mon Jun  5 13:27:10 2023


 **********************************************************************************************************************************
 LABEL *                                                                                                                                                                 
  (16 PROC) 64 bit serial version                                                        DATE: 03-Aug-23          TIME: 10:47:53  
 **********************************************************************************************************************************

 SHA1:             9738a14712571edd23541b6d7c4f3a3d766f8287
 **********************************************************************************************************************************

 Memory per process:       805 MW
 Total memory per node:   1074 MW
 Total GA space:           268 MW

 GA preallocation disabled
 GA check enabled

 Geometry recognized as XYZ


 Variable memory set to 805.3 MW

 SETTING BASIS          =    CC-PVTZ


 Recomputing integrals since basis changed


 Using spherical harmonics

 Library entry C      S cc-pVTZ              selected for orbital group  1
 Library entry C      P cc-pVTZ              selected for orbital group  1
 Library entry C      D cc-pVTZ              selected for orbital group  1
 Library entry C      F cc-pVTZ              selected for orbital group  1
 Library entry H      S cc-pVTZ              selected for orbital group  2
 Library entry H      P cc-pVTZ              selected for orbital group  2
 Library entry H      D cc-pVTZ              selected for orbital group  2


 PROGRAM * SEWARD (Integral evaluation for generally contracted gaussian basis sets)     Author: Roland Lindh, 1990

 Geometry written to block  1 of record 700


 Point group  Cs  



 ATOMIC COORDINATES

 NR  ATOM    CHARGE       X              Y              Z

   1  C       6.00   -0.185427033   -1.628403873    1.408039225
   2  C       6.00   -0.185427033   -1.628403873   -1.408039225
   3  C       6.00   -0.144556017    0.923224300    2.171806318
   4  C       6.00   -0.144556017    0.923224300   -2.171806318
   5  C       6.00   -0.125466004    2.440368790    0.000000000
   6  H       1.00    1.814589877   -2.065216108    0.000000000
   7  H       1.00   -0.471439085   -3.297816864    2.557854821
   8  H       1.00   -0.471439085   -3.297816864   -2.557854821
   9  H       1.00   -0.047977765    1.572222637    4.110017826
  10  H       1.00   -0.047977765    1.572222637   -4.110017826
  11  H       1.00    0.009675908    4.486394900    0.000000000

 Bond lengths in Bohr (Angstrom)

 1-2  2.816078450  1-3  2.663797467  1-6  2.484642233  1-7  2.047148878  2-4  2.663797467
     ( 1.490204540)     ( 1.409620914)     ( 1.314816047)     ( 1.083304534)     ( 1.409620914)

 2-6  2.484642233  2-8  2.047148878  3-5  2.649308309  3-9  2.046262459  4-5  2.649308309
     ( 1.314816047)     ( 1.083304534)     ( 1.401953582)     ( 1.082835461)     ( 1.401953582)

  4-10  2.046262459   5-11  2.050484376
       ( 1.082835461)       ( 1.085069603)

 Bond angles

  1-2-4  106.66175794   1-2-6   55.47978489   1-2-8  124.17114784   1-3-5  108.27691816

  1-3-9  125.17759500   1-6-2   69.04043022   2-1-3  106.66175794   2-1-6   55.47978489

  2- 1- 7  124.17114784   2- 4- 5  108.27691816   2- 4-10  125.17759500   3- 1- 6  108.57437980

  3- 1- 7  128.48025281   3- 5- 4  110.12225738   3- 5-11  124.88189150   4- 2- 6  108.57437980

  4- 2- 8  128.48025281   4- 5-11  124.88189150   5- 3- 9  126.47779134   5- 4-10  126.47779134

  6-1-7  106.70181673   6-2-8  106.70181673

 NUCLEAR CHARGE:                   36
 NUMBER OF PRIMITIVE AOS:         337
 NUMBER OF SYMMETRY AOS:          306
 NUMBER OF CONTRACTIONS:          234   (  128A'  +  106A"  )
 NUMBER OF INNER CORE ORBITALS:     0   (    0A'  +    0A"  )
 NUMBER OF OUTER CORE ORBITALS:     5   (    3A'  +    2A"  )
 NUMBER OF VALENCE ORBITALS:       26   (   15A'  +   11A"  )


 NUCLEAR REPULSION ENERGY  158.26977708


 Eigenvalues of metric

         1 0.131E-03 0.970E-03 0.104E-02 0.129E-02 0.132E-02 0.171E-02 0.173E-02 0.210E-02
         2 0.204E-03 0.100E-02 0.106E-02 0.117E-02 0.145E-02 0.182E-02 0.191E-02 0.236E-02


 Contracted 2-electron integrals neglected if value below      1.0D-11
 AO integral compression algorithm  1   Integral accuracy      1.0D-11

     845.414 MB (compressed) written to integral file ( 48.4%)


 NUMBER OF SORTED TWO-ELECTRON INTEGRALS:  190627180.     BUFFER LENGTH:  32768
 NUMBER OF SEGMENTS:  12  SEGMENT LENGTH:   15999071      RECORD LENGTH: 524288

 Memory used in sort:      16.56 MW

 SORT1 READ   218086303. AND WROTE   183804935. INTEGRALS IN    533 RECORDS. CPU TIME:     3.11 SEC, REAL TIME:     4.70 SEC
 SORT2 READ   183804935. AND WROTE   190627180. INTEGRALS IN   3225 RECORDS. CPU TIME:     3.68 SEC, REAL TIME:     6.42 SEC

 FILE SIZES:   FILE 1:   877.0 MBYTE,  FILE 4:  2235.6 MBYTE,   TOTAL:   3112.6 MBYTE

 OPERATOR DM      FOR CENTER  0  COORDINATES:    0.000000    0.000000    0.000000


 **********************************************************************************************************************************
 DATASETS  * FILE   NREC   LENGTH (MB)   RECORD NAMES
              1      19      761.51       500      610      700      900      950      970     1000      129      960     1100   
                                          VAR    BASINP    GEOM    SYMINP    ZMAT    AOBASIS   BASIS     P2S    ABASIS      S 
                                         1400     1410     1200     1210     1080     1600     1650     1300     1700   
                                           T        V       H0       H01     AOSYM     SMH    MOLCAS    ERIS     OPER   

 PROGRAMS   *        TOTAL       INT
 CPU TIMES  *        26.03     25.89
 REAL TIME  *        35.19 SEC
 DISK USED  *         2.90 GB
 **********************************************************************************************************************************


 Program * Restricted Hartree-Fock

 Orbital guess generated from atomic densities. Full valence occupancy:   18  13

 Initial occupancy:  11   7

 NELEC=   36   SYM=1   MS2= 0   THRE=1.0D-08   THRD=3.2D-06   THRG=3.2D-06  HFMA2=F  DIIS_START=2   DIIS_MAX=10   DIIS_INCORE=F

 Level shifts:    0.00 (CLOSED)    0.00 (OPEN)    0.30 (GAP_MIN)

 ITER           ETOT              DE          GRAD        DDIFF     DIIS  NEXP   TIME(IT)  TIME(TOT)  DIAG
   1     -192.72983678    -192.72983678     0.00D+00     0.68D-01     0     0       1.37      2.67    start
   2     -192.78515546      -0.05531868     0.49D-02     0.76D-02     1     0       1.36      4.03    diag
   3     -192.79817439      -0.01301893     0.25D-02     0.27D-02     2     0       1.35      5.38    diag
   4     -192.79942016      -0.00124577     0.62D-03     0.12D-02     3     0       1.35      6.73    diag
   5     -192.79949139      -0.00007123     0.16D-03     0.24D-03     4     0       1.35      8.08    diag
   6     -192.79950300      -0.00001161     0.48D-04     0.12D-03     5     0       1.38      9.46    diag
   7     -192.79950522      -0.00000223     0.16D-04     0.43D-04     6     0       1.36     10.82    diag
   8     -192.79950587      -0.00000065     0.77D-05     0.24D-04     7     0       1.36     12.18    fixocc
   9     -192.79950595      -0.00000008     0.29D-05     0.92D-05     8     0       1.35     13.53    diag
  10     -192.79950596      -0.00000001     0.97D-06     0.32D-05     9     0       1.38     14.91    diag/orth
  11     -192.79950596      -0.00000000     0.21D-06     0.53D-06     9     0       1.37     16.28    diag
  12     -192.79950596      -0.00000000     0.89D-07     0.15D-06     0     0       1.38     17.66    diag

 Final occupancy:  11   7

 !RHF STATE 1.1 Energy               -192.799505960160
  RHF One-electron energy            -572.471734281556
  RHF Two-electron energy             221.402451242212
  RHF Kinetic energy                  192.439710782315
  RHF Nuclear energy                  158.269777079184
  RHF Virial quotient                  -1.001869651416

 !RHF STATE 1.1 Dipole moment           0.18280524    -0.47893116     0.00000000
 Dipole moment /Debye                   0.46464458    -1.21732160     0.00000000

 Orbital energies:

           1.1          2.1          3.1          4.1          5.1          6.1          7.1          8.1          9.1         10.1
    -11.257448   -11.221245   -11.213794    -1.172159    -0.976550    -0.743451    -0.701179    -0.604655    -0.531623    -0.510854

          11.1         12.1         13.1
     -0.350184     0.140660     0.162660

           1.2          2.2          3.2          4.2          5.2          6.2          7.2          8.2          9.2
    -11.256714   -11.213907    -0.954178    -0.744761    -0.553934    -0.526206    -0.300577     0.167312     0.178505


 HOMO      7.2    -0.300577 =      -8.1791eV
 LUMO     12.1     0.140660 =       3.8275eV
 LUMO-HOMO         0.441237 =      12.0067eV

 Orbitals saved in record  2100.2


 **********************************************************************************************************************************
 DATASETS  * FILE   NREC   LENGTH (MB)   RECORD NAMES
              1      19      761.51       500      610      700      900      950      970     1000      129      960     1100   
                                          VAR    BASINP    GEOM    SYMINP    ZMAT    AOBASIS   BASIS     P2S    ABASIS      S 
                                         1400     1410     1200     1210     1080     1600     1650     1300     1700   
                                           T        V       H0       H01     AOSYM     SMH    MOLCAS    ERIS     OPER   

              2       4        1.00       700     1000      520     2100   
                                         GEOM     BASIS   MCVARS     RHF  

 PROGRAMS   *        TOTAL    HF-SCF       INT
 CPU TIMES  *        43.69     17.66     25.89
 REAL TIME  *        54.91 SEC
 DISK USED  *         2.90 GB
 **********************************************************************************************************************************


 PROGRAM * PAPT (Closed-shell)     Authors: C. Hampel, H.-J. Werner, 1991, P.J. Knowles, 2021


 Convergence thresholds:  THRVAR = 1.00D-08  THRDEN = 1.00D-06

 Number of core orbitals:           5 (   3   2 )
 Number of closed-shell orbitals:  13 (   8   5 )
 Number of external orbitals:     216 ( 117  99 )

 Molecular orbitals read from record     2100.2  Type=RHF/CANONICAL  

 Number of N-1 electron functions:              13
 Number of N-2 electron functions:              91
 Number of singly external CSFs:              1431
 Number of doubly external CSFs:           1973349
 Total number of CSFs:                     1974781

 Length of J-op  integral file:               0.00 MB
 Length of K-op  integral file:               1.96 MB

 Integral transformation finished. Total CPU:   3.49 sec, npass=  1  Memory used:   3.11 MW

 Reference energy:                   -192.79950596

                        CORR.ENERGY   TOTAL ENERGY   ENERGY CHANGE
 MP2:                   -0.82529569  -193.62480165    -0.82529569

 SCS-MP2 correlation energy:           -0.81162874   (PS=  1.200000  PT=  0.333333)
 SCS-MP2 total energy:               -193.61113470
 Iteration:   1     0.2761D+00
 Iteration:   2     0.4660D+00
 Iteration:   3     0.7706D-01
 Iteration:   4     0.1009D+00
 Iteration:   5     0.3410D-01
 Iteration:   6     0.1926D-01
 Iteration:   7     0.4906D-01
 Iteration:   8     0.4428D-02
 Iteration:   9     0.6373D-02
 Iteration:  10     0.1412D-02
 Iteration:  11     0.8303D-03
 Iteration:  12     0.1265D-02
 Iteration:  13     0.2681D-03
 Iteration:  14     0.1123D-02
 Iteration:  15     0.9757D-04
 PAPT operator written to  7000.1
 PAPT orbitals and eigenvalues written to  7000.2

 MP3(D):                -0.84610401  -193.64560997    -0.02080832



 RESULTS
 =======

  Reference energy                   -192.799505960160
  MP3 singlet pair energy              -0.560643653192
  MP3 triplet pair energy              -0.285460360099
  MP3 correlation energy               -0.846104013291

 !MP3 total energy                   -193.645609973451

 Timing summary (sec):

 STEP                 CPU(USER)    SYS     CPU(TOT)    WALL
 Transformation          3.61      0.30      3.91      4.79
 CCSD iterations        54.77      0.57     55.34     12.69

 Program statistics:

 Available memory in ccsd:               805305681
 Min. memory needed in ccsd:               5062113
 Max. memory used in ccsd:                 6831534
 Max. memory used in cckext:               6972941 ( 1 integral passes)



 **********************************************************************************************************************************
 DATASETS  * FILE   NREC   LENGTH (MB)   RECORD NAMES
              1      21      790.63       500      610      700      900      950      970     1000      129      960     1100   
                                          VAR    BASINP    GEOM    SYMINP    ZMAT    AOBASIS   BASIS     P2S    ABASIS      S 
                                         1400     1410     1200     1210     1080     1600     1650     1300     1700     1380   
                                           T        V       H0       H01     AOSYM     SMH    MOLCAS    ERIS     OPER     JKOP   
                                         7000   
                                        PAPT AO    

              2       5        1.74       700     1000      520     2100     7000   
                                         GEOM     BASIS   MCVARS     RHF     PAPT   

 PROGRAMS   *        TOTAL      PAPT    HF-SCF       INT
 CPU TIMES  *        58.18     14.49     17.66     25.89
 REAL TIME  *        72.44 SEC
 DISK USED  *         2.90 GB
 **********************************************************************************************************************************


 PROGRAM * MP2 (Closed-shell)     Authors: C. Hampel, H.-J. Werner, 1991, M. Deegan, P.J. Knowles, 1992


 Convergence thresholds:  THRVAR = 1.00D-08  THRDEN = 1.00D-06

 Number of core orbitals:           5 (   3   2 )
 Number of closed-shell orbitals:  13 (   8   5 )
 Number of external orbitals:     216 ( 117  99 )

 Molecular orbitals read from record     7000.2  Type=PAPT/CANONICAL (state 1.1)

 Number of N-1 electron functions:              13
 Number of N-2 electron functions:              91
 Number of singly external CSFs:              1431
 Number of doubly external CSFs:           1973349
 Total number of CSFs:                     1974781

 Length of J-op  integral file:               0.00 MB
 Length of K-op  integral file:               1.96 MB

 Integral transformation finished. Total CPU:   3.46 sec, npass=  1  Memory used:   3.11 MW
 Orbital energies read from record       7000.2  Type=PAPT/CANONICAL (state 1.1)

 Memory needed for MP2:                      0.13 MW

 SCS-MP2 correlation energy:           -0.844504687314   (PS=  1.200000  PT=  0.333333)
 SCS-MP2 total energy:               -193.644010647475


  Reference energy                   -192.799505960160
  MP2 singlet pair energy              -0.542173331736
  MP2 triplet pair energy              -0.311619679121
  MP2 correlation energy               -0.853793010857

 !MP2 total energy                   -193.653298971017


 **********************************************************************************************************************************
 DATASETS  * FILE   NREC   LENGTH (MB)   RECORD NAMES
              1      21      790.63       500      610      700      900      950      970     1000      129      960     1100   
                                          VAR    BASINP    GEOM    SYMINP    ZMAT    AOBASIS   BASIS     P2S    ABASIS      S 
                                         1400     1410     1200     1210     1080     1600     1650     1300     1700     1380   
                                           T        V       H0       H01     AOSYM     SMH    MOLCAS    ERIS     OPER     JKOP   
                                         7000   
                                        PAPT AO    

              2       5        1.74       700     1000      520     2100     7000   
                                         GEOM     BASIS   MCVARS     RHF     PAPT   

 PROGRAMS   *        TOTAL       MP2      PAPT    HF-SCF       INT
 CPU TIMES  *        63.22      5.04     14.49     17.66     25.89
 REAL TIME  *        78.17 SEC
 DISK USED  *         2.90 GB
 **********************************************************************************************************************************

 Dump information in style XML to xml output                                                                      

 Orbitals will not be exported.

 **********************************************************************************************************************************

 MP2/cc-pVTZ energy=   -193.653298971017

             MP2            PAPT          HF-SCF
   -193.65329897   -193.64560997   -192.79950596
 **********************************************************************************************************************************
 Molpro calculation terminated
