
 Working directory              : /home/jovyan/scratch/molpro.RL71qAtZgA/
 Global scratch directory       : /home/jovyan/scratch/molpro.RL71qAtZgA/
 Wavefunction directory         : /home/jovyan/wfu/
 Main file repository           : /home/jovyan/scratch/molpro.RL71qAtZgA/

 id        : cardiff

 Nodes                nprocs
 jupyter-c-2efrancisan    1
 GA implementation: MPI file
 GA implementation (serial work in mppx): MPI file

 Using customized tuning parameters: mindgm=1; mindgv=20; mindgc=4; mindgr=1; noblas=0; minvec=7
 default implementation of scratch files=df  


 Variables initialized (1031), CPU time= 0.01 sec
 
 
 
 geometry={
 6
  2H2O (Full point group Cs)
  O 0.000756 1.523252 0.000000
  H -0.086365 0.557493 0.000000
  H -0.898788 1.860643 0.000000
  O 0.000756 -1.396126 0.000000
  H 0.486527 -1.717573 0.766199
  H 0.486527 -1.717573 -0.766199
 }
 basis=cc-pVDZ
 angstrom
 
 
 hf; mp4
 
 
 
 {put,xml;noorbitals,nobasis}
 Commands initialized (841), CPU time= 0.00 sec, 704 directives.
 Default parameters read. Elapsed time= 0.08 sec

 Checking input...
 Passed
1


                                         ***  PROGRAM SYSTEM MOLPRO  ***
                                       Copyright, TTI GmbH Stuttgart, 2015
                                    Version 2023.1 linked Mon Jun  5 13:27:10 2023


 **********************************************************************************************************************************
 LABEL *                                                                                                                                                                 
  (16 PROC) 64 bit serial version                                                        DATE: 03-Aug-23          TIME: 12:45:06  
 **********************************************************************************************************************************

 SHA1:             9738a14712571edd23541b6d7c4f3a3d766f8287
 **********************************************************************************************************************************

 Memory per process:       805 MW
 Total memory per node:   1074 MW
 Total GA space:           268 MW

 GA preallocation disabled
 GA check enabled

 Geometry recognized as XYZ


 Variable memory set to 805.3 MW

 SETTING BASIS          =    CC-PVDZ


 Recomputing integrals since basis changed


 Using spherical harmonics

 Library entry O      S cc-pVDZ              selected for orbital group  1
 Library entry O      P cc-pVDZ              selected for orbital group  1
 Library entry O      D cc-pVDZ              selected for orbital group  1
 Library entry H      S cc-pVDZ              selected for orbital group  2
 Library entry H      P cc-pVDZ              selected for orbital group  2


 PROGRAM * SEWARD (Integral evaluation for generally contracted gaussian basis sets)     Author: Roland Lindh, 1990

 Geometry written to block  1 of record 700


 Point group  Cs  



 ATOMIC COORDINATES

 NR  ATOM    CHARGE       X              Y              Z

   1  O       8.00    0.001428633    2.878529099    0.000000000
   2  H       1.00   -0.163206197    1.053509086    0.000000000
   3  H       1.00   -1.698463164    3.516105686    0.000000000
   4  O       8.00    0.001428633   -2.638295775    0.000000000
   5  H       1.00    0.919402782   -3.245742569    1.447906267
   6  H       1.00    0.919402782   -3.245742569   -1.447906267

 Bond lengths in Bohr (Angstrom)

 1-2  1.832430810  1-3  1.815526377  4-5  1.818818491  4-6  1.818818491
     ( 0.969680625)     ( 0.960735185)     ( 0.962477296)     ( 0.962477296)

 Bond angles

  2-1-3  105.40481457   5-4-6  105.51281466

 NUCLEAR CHARGE:                   20
 NUMBER OF PRIMITIVE AOS:          82
 NUMBER OF SYMMETRY AOS:           80
 NUMBER OF CONTRACTIONS:           48   (   33A'  +   15A"  )
 NUMBER OF INNER CORE ORBITALS:     0   (    0A'  +    0A"  )
 NUMBER OF OUTER CORE ORBITALS:     2   (    2A'  +    0A"  )
 NUMBER OF VALENCE ORBITALS:       12   (    9A'  +    3A"  )


 NUCLEAR REPULSION ENERGY   36.49286655

 Eigenvalues of metric

         1 0.164E-01 0.178E-01 0.439E-01 0.461E-01 0.515E-01 0.705E-01 0.152E+00 0.162E+00
         2 0.445E-01 0.990E-01 0.171E+00 0.183E+00 0.530E+00 0.620E+00 0.623E+00 0.673E+00


 Contracted 2-electron integrals neglected if value below      1.0D-11
 AO integral compression algorithm  1   Integral accuracy      1.0D-11

     1.835 MB (compressed) written to integral file ( 52.9%)


 NUMBER OF SORTED TWO-ELECTRON INTEGRALS:     366861.     BUFFER LENGTH:  32768
 NUMBER OF SEGMENTS:   1  SEGMENT LENGTH:     366861      RECORD LENGTH: 524288

 Memory used in sort:       0.92 MW

 SORT1 READ      450927. AND WROTE      330647. INTEGRALS IN      1 RECORDS. CPU TIME:     0.01 SEC, REAL TIME:     0.11 SEC
 SORT2 READ      330647. AND WROTE      366861. INTEGRALS IN      7 RECORDS. CPU TIME:     0.03 SEC, REAL TIME:     0.03 SEC

 FILE SIZES:   FILE 1:    32.0 MBYTE,  FILE 4:     4.3 MBYTE,   TOTAL:     36.2 MBYTE

 OPERATOR DM      FOR CENTER  0  COORDINATES:    0.000000    0.000000    0.000000


 **********************************************************************************************************************************
 DATASETS  * FILE   NREC   LENGTH (MB)   RECORD NAMES
              1      19       30.07       500      610      700      900      950      970     1000      129      960     1100   
                                          VAR    BASINP    GEOM    SYMINP    ZMAT    AOBASIS   BASIS     P2S    ABASIS      S 
                                         1400     1410     1200     1210     1080     1600     1650     1300     1700   
                                           T        V       H0       H01     AOSYM     SMH    MOLCAS    ERIS     OPER   

 PROGRAMS   *        TOTAL       INT
 CPU TIMES  *         0.63      0.50
 REAL TIME  *         1.89 SEC
 DISK USED  *        34.96 MB
 **********************************************************************************************************************************


 Program * Restricted Hartree-Fock

 Orbital guess generated from atomic densities. Full valence occupancy:   11   3

 Initial occupancy:   8   2

 NELEC=   20   SYM=1   MS2= 0   THRE=1.0D-08   THRD=3.2D-06   THRG=3.2D-06  HFMA2=F  DIIS_START=2   DIIS_MAX=10   DIIS_INCORE=F

 Level shifts:    0.00 (CLOSED)    0.00 (OPEN)    0.30 (GAP_MIN)

 ITER           ETOT              DE          GRAD        DDIFF     DIIS  NEXP   TIME(IT)  TIME(TOT)  DIAG
   1     -151.99327054    -151.99327054     0.00D+00     0.23D+00     0     0       0.00      0.01    start
   2     -152.04706739      -0.05379685     0.19D-01     0.41D-01     1     0       0.01      0.02    diag
   3     -152.06153486      -0.01446747     0.97D-02     0.13D-01     2     0       0.00      0.02    diag
   4     -152.06197320      -0.00043834     0.12D-02     0.27D-02     3     0       0.01      0.03    diag
   5     -152.06200625      -0.00003305     0.30D-03     0.77D-03     4     0       0.00      0.03    diag
   6     -152.06200773      -0.00000148     0.59D-04     0.14D-03     5     0       0.01      0.04    diag
   7     -152.06200784      -0.00000011     0.22D-04     0.38D-04     6     0       0.00      0.04    diag
   8     -152.06200785      -0.00000001     0.46D-05     0.12D-04     7     0       0.00      0.04    fixocc
   9     -152.06200785      -0.00000000     0.50D-06     0.11D-05     8     0       0.01      0.05    diag
  10     -152.06200785      -0.00000000     0.14D-06     0.22D-06     0     0       0.00      0.05    diag/orth

 Final occupancy:   8   2

 !RHF STATE 1.1 Energy               -152.062007849953
  RHF One-electron energy            -282.549572466764
  RHF Two-electron energy              93.994698066100
  RHF Kinetic energy                  151.929786758206
  RHF Nuclear energy                   36.492866550711
  RHF Virial quotient                  -1.000870277610

 !RHF STATE 1.1 Dipole moment           0.02055687    -1.10734860     0.00000000
 Dipole moment /Debye                   0.05225035    -2.81459939     0.00000000

 Orbital energies:

           1.1          2.1          3.1          4.1          5.1          6.1          7.1          8.1          9.1         10.1
    -20.583908   -20.515685    -1.366126    -1.299859    -0.673270    -0.597515    -0.539501    -0.513938     0.163416     0.230971

           1.2          2.2          3.2          4.2
     -0.729286    -0.461000     0.239648     0.760482


 HOMO      2.2    -0.461000 =     -12.5445eV
 LUMO      9.1     0.163416 =       4.4468eV
 LUMO-HOMO         0.624416 =      16.9912eV

 Orbitals saved in record  2100.2


 **********************************************************************************************************************************
 DATASETS  * FILE   NREC   LENGTH (MB)   RECORD NAMES
              1      19       30.07       500      610      700      900      950      970     1000      129      960     1100   
                                          VAR    BASINP    GEOM    SYMINP    ZMAT    AOBASIS   BASIS     P2S    ABASIS      S 
                                         1400     1410     1200     1210     1080     1600     1650     1300     1700   
                                           T        V       H0       H01     AOSYM     SMH    MOLCAS    ERIS     OPER   

              2       4        0.48       700     1000      520     2100   
                                         GEOM     BASIS   MCVARS     RHF  

 PROGRAMS   *        TOTAL    HF-SCF       INT
 CPU TIMES  *         0.69      0.05      0.50
 REAL TIME  *         1.99 SEC
 DISK USED  *        34.96 MB
 **********************************************************************************************************************************


 PROGRAM * MP4 (Closed-shell)     Authors: C. Hampel, H.-J. Werner, 1991, M. Deegan, P.J. Knowles, 1992


 Convergence thresholds:  THRVAR = 1.00D-08  THRDEN = 1.00D-06

 MP4(T)     terms to be evaluated (factor= 0.000)


 Number of core orbitals:           2 (   2   0 )
 Number of closed-shell orbitals:   8 (   6   2 )
 Number of external orbitals:      38 (  25  13 )

 Molecular orbitals read from record     2100.2  Type=RHF/CANONICAL  

 Number of N-1 electron functions:               8
 Number of N-2 electron functions:              36
 Number of singly external CSFs:               176
 Number of doubly external CSFs:             23832
 Total number of CSFs:                       24009

 Length of J-op  integral file:               0.00 MB
 Length of K-op  integral file:               0.15 MB

 Memory could be reduced to 0.42 Mwords without degradation in triples

 Integral transformation finished. Total CPU:   0.02 sec, npass=  1  Memory used:   0.25 MW

 Reference energy:                   -152.06200785

                        CORR.ENERGY   TOTAL ENERGY   ENERGY CHANGE
 MP2:                   -0.40647514  -152.46848299    -0.40647514

 SCS-MP2 correlation energy:           -0.39863293   (PS=  1.200000  PT=  0.333333)
 SCS-MP2 total energy:               -152.46064078

 MP3(D):                -0.41959065  -152.48159850    -0.01311551
 MP4(DQ):               -0.42268193  -152.48468978    -0.00309128
 MP4(SDQ):              -0.42425238  -152.48626023    -0.00157045

 Norm of t1 vector:      0.02932101      S-energy:    -0.00157045      T1 diagnostic:  0.00518327


 Total CPU time for triples:      0.11 sec


 RESULTS
 =======

  Reference energy                   -152.062007849953
  MP4(SDQ) singlet pair energy         -0.278111363308
  MP4(SDQ) triplet pair energy         -0.144570566914
  MP4(SDQ) correlation energy          -0.424252375715

  Triples contribution                 -0.006385418513
  Total correlation energy             -0.430637794228

  MP4(SDQ) total energy              -152.486260225668
 !MP4(SDTQ) total energy             -152.492645644181

 Timing summary (sec):

 STEP                 CPU(USER)    SYS     CPU(TOT)    WALL
 Transformation          0.02      0.01      0.03      0.18
 CCSD iterations         0.96      0.00      0.96      0.05
 Triples                 0.11      0.01      0.12      0.12

 Program statistics:

 Available memory in ccsd:               805306104
 Min. memory needed in ccsd:                 85511
 Max. memory used in ccsd:                  102679
 Max. memory used in cckext:                145043 ( 1 integral passes)



 **********************************************************************************************************************************
 DATASETS  * FILE   NREC   LENGTH (MB)   RECORD NAMES
              1      20       31.47       500      610      700      900      950      970     1000      129      960     1100   
                                          VAR    BASINP    GEOM    SYMINP    ZMAT    AOBASIS   BASIS     P2S    ABASIS      S 
                                         1400     1410     1200     1210     1080     1600     1650     1300     1700     1380   
                                           T        V       H0       H01     AOSYM     SMH    MOLCAS    ERIS     OPER     JKOP   

              2       4        0.48       700     1000      520     2100   
                                         GEOM     BASIS   MCVARS     RHF  

 PROGRAMS   *        TOTAL       MP4    HF-SCF       INT
 CPU TIMES  *         0.89      0.20      0.05      0.50
 REAL TIME  *         2.38 SEC
 DISK USED  *        34.96 MB
 **********************************************************************************************************************************

 Dump information in style XML to xml output                                                                      

 Orbitals will not be exported.

 **********************************************************************************************************************************

 MP4/cc-pVDZ energy=   -152.492645644181

             MP4          HF-SCF
   -152.49264564   -152.06200785
 **********************************************************************************************************************************
 Molpro calculation terminated
