
 Working directory              : /home/jovyan/scratch/molpro.JYFgIFM9Ot/
 Global scratch directory       : /home/jovyan/scratch/molpro.JYFgIFM9Ot/
 Wavefunction directory         : /home/jovyan/wfu/
 Main file repository           : /home/jovyan/scratch/molpro.JYFgIFM9Ot/

 id        : cardiff

 Nodes                nprocs
 jupyter-c-2efrancisan    1
 GA implementation: MPI file
 GA implementation (serial work in mppx): MPI file

 Using customized tuning parameters: mindgm=1; mindgv=20; mindgc=4; mindgr=1; noblas=0; minvec=7
 default implementation of scratch files=df  


 Variables initialized (1031), CPU time= 0.00 sec
 
 
 
 geometry={
           15
     C         -0.50973845     -4.57409193      4.82078256
     H          0.12390675     -4.81524791      5.68716964
     H          0.15526735     -4.38166597      3.96691327
     H         -1.11467319     -5.46282563      4.58988793
     C         -1.40199201     -3.35538275      5.11048399
     H         -2.04014145     -3.14723348      4.23950113
     H         -2.08767775     -3.61035058      5.93828216
     C         -0.60901681     -2.13869195      5.49603240
     H          0.06148939     -2.28076413      6.35155563
     C         -0.61956324     -0.92707393      4.91947698
     H          0.03865347     -0.16350647      5.34781832
     C         -1.43816619     -0.47482642      3.74666948
     H         -2.11673732      0.34474903      4.03474932
     H         -0.79185021     -0.07516951      2.94871813
     H         -2.04903062     -1.27818940      3.31602797
 }
 basis=cc-pVTZ
 angstrom
 
 
 hf; papt;mp2
 
 
 
 {put,xml;noorbitals,nobasis}
 Commands initialized (841), CPU time= 0.01 sec, 704 directives.
 Default parameters read. Elapsed time= 0.08 sec

 Checking input...
 Passed
1


                                         ***  PROGRAM SYSTEM MOLPRO  ***
                                       Copyright, TTI GmbH Stuttgart, 2015
                                    Version 2023.1 linked Mon Jun  5 13:27:10 2023


 **********************************************************************************************************************************
 LABEL *                                                                                                                                                                 
  (16 PROC) 64 bit serial version                                                        DATE: 03-Aug-23          TIME: 16:42:11  
 **********************************************************************************************************************************

 SHA1:             9738a14712571edd23541b6d7c4f3a3d766f8287
 **********************************************************************************************************************************

 Memory per process:       805 MW
 Total memory per node:   1074 MW
 Total GA space:           268 MW

 GA preallocation disabled
 GA check enabled

 Geometry recognized as XYZ


 Variable memory set to 805.3 MW

 SETTING BASIS          =    CC-PVTZ


 Recomputing integrals since basis changed


 Using spherical harmonics

 Library entry C      S cc-pVTZ              selected for orbital group  1
 Library entry C      P cc-pVTZ              selected for orbital group  1
 Library entry C      D cc-pVTZ              selected for orbital group  1
 Library entry C      F cc-pVTZ              selected for orbital group  1
 Library entry H      S cc-pVTZ              selected for orbital group  2
 Library entry H      P cc-pVTZ              selected for orbital group  2
 Library entry H      D cc-pVTZ              selected for orbital group  2


 PROGRAM * SEWARD (Integral evaluation for generally contracted gaussian basis sets)     Author: Roland Lindh, 1990

 Geometry written to block  1 of record 700


 Point group  C1  



 ATOMIC COORDINATES

 NR  ATOM    CHARGE       X              Y              Z

   1  C       6.00   -0.963266066   -8.643781017    9.109958745
   2  H       1.00    0.234149822   -9.099499772   10.747193044
   3  H       1.00    0.293412768   -8.280148653    7.496379640
   4  H       1.00   -2.106427048  -10.323244307    8.673631130
   5  C       6.00   -2.649380928   -6.340754441    9.657415105
   6  H       1.00   -3.855308596   -5.947409327    8.011496041
   7  H       1.00   -3.945139184   -6.822573810   11.221726933
   8  C       6.00   -1.150874976   -4.041542050   10.385996008
   9  H       1.00    0.116198107   -4.310019561   12.002700606
  10  C       6.00   -1.170804840   -1.751915825    9.296464169
  11  H       1.00    0.073044472   -0.308982448   10.105911989
  12  C       6.00   -2.717740221   -0.897291891    7.080179197
  13  H       1.00   -4.000053813    0.651481248    7.624571196
  14  H       1.00   -1.496380029   -0.142049787    5.572269684
  15  H       1.00   -3.872106693   -2.415427901    6.266384685

 Bond lengths in Bohr (Angstrom)

 1-2  2.078946980  1-3  2.077283734  1-4  2.077930644  1-5  2.906307486  5-6  2.077987364
     ( 1.100131364)     ( 1.099251213)     ( 1.099593543)     ( 1.537951690)     ( 1.099623558)

  5- 7  2.087632836   5- 8  2.839494292   8- 9  2.071542451   8-10  2.535717863  10-11  2.069884928
       ( 1.104727721)       ( 1.502595670)       ( 1.096213057)       ( 1.341844106)       ( 1.095335933)

 10-12  2.834662276  12-13  2.083120024  12-14  2.082282990  12-15  2.073538137
       ( 1.500038677)       ( 1.102339644)       ( 1.101896705)       ( 1.097269128)

 Bond angles

  1-5-6  109.72356774   1-5-7  108.56337849   1-5-8  112.56980816   2-1-3  107.55756075

  2-1-4  107.76199253   2-1-5  111.07029051   3-1-4  108.13106820   3-1-5  111.01286986

  4- 1- 5  111.15247801   5- 8- 9  114.71479820   5- 8-10  128.07881891   6- 5- 7  106.08143653

  6- 5- 8  110.86863599   7- 5- 8  108.79433619   8-10-11  117.17453286   8-10-12  127.76768194

  9- 8-10  117.20430848  10-12-13  110.84008185  10-12-14  110.82073257  10-12-15  112.94985411

 11-10-12  115.05685232  13-12-14  106.29902715  13-12-15  107.71061743  14-12-15  107.93148267

 NUCLEAR CHARGE:                   40
 NUMBER OF PRIMITIVE AOS:         405
 NUMBER OF SYMMETRY AOS:          370
 NUMBER OF CONTRACTIONS:          290   (  290A   )
 NUMBER OF INNER CORE ORBITALS:     0   (    0A   )
 NUMBER OF OUTER CORE ORBITALS:     5   (    5A   )
 NUMBER OF VALENCE ORBITALS:       30   (   30A   )


 NUCLEAR REPULSION ENERGY  170.48774625


 Eigenvalues of metric

         1 0.271E-03 0.464E-03 0.876E-03 0.965E-03 0.115E-02 0.117E-02 0.129E-02 0.133E-02


 Contracted 2-electron integrals neglected if value below      1.0D-11
 AO integral compression algorithm  1   Integral accuracy      1.0D-11

     2747.007 MB (compressed) written to integral file ( 38.3%)


 NUMBER OF SORTED TWO-ELECTRON INTEGRALS:  890230110.     BUFFER LENGTH:  32768
 NUMBER OF SEGMENTS:  56  SEGMENT LENGTH:   15999984      RECORD LENGTH: 262144

 Memory used in sort:      16.29 MW

 SORT1 READ   896291989. AND WROTE   700964787. INTEGRALS IN   4039 RECORDS. CPU TIME:    11.85 SEC, REAL TIME:    20.89 SEC
 SORT2 READ   700964787. AND WROTE   890230110. INTEGRALS IN  10479 RECORDS. CPU TIME:    11.79 SEC, REAL TIME:    20.70 SEC

 FILE SIZES:   FILE 1:  2780.4 MBYTE,  FILE 4:  8470.5 MBYTE,   TOTAL:  11250.8 MBYTE

 OPERATOR DM      FOR CENTER  0  COORDINATES:    0.000000    0.000000    0.000000


 **********************************************************************************************************************************
 DATASETS  * FILE   NREC   LENGTH (MB)   RECORD NAMES
              1      19     2447.21       500      610      700      900      950      970     1000      129      960     1100   
                                          VAR    BASINP    GEOM    SYMINP    ZMAT    AOBASIS   BASIS     P2S    ABASIS      S 
                                         1400     1410     1200     1210     1080     1600     1650     1300     1700   
                                           T        V       H0       H01     AOSYM     SMH    MOLCAS    ERIS     OPER   

 PROGRAMS   *        TOTAL       INT
 CPU TIMES  *        70.71     70.57
 REAL TIME  *        94.94 SEC
 DISK USED  *        10.48 GB
 **********************************************************************************************************************************


 Program * Restricted Hartree-Fock

 Orbital guess generated from atomic densities. Full valence occupancy:   35

 Initial occupancy:  20

 NELEC=   40   SYM=1   MS2= 0   THRE=1.0D-08   THRD=3.2D-06   THRG=3.2D-06  HFMA2=F  DIIS_START=2   DIIS_MAX=10   DIIS_INCORE=F

 Level shifts:    0.00 (CLOSED)    0.00 (OPEN)    0.30 (GAP_MIN)

 ITER           ETOT              DE          GRAD        DDIFF     DIIS  NEXP   TIME(IT)  TIME(TOT)  DIAG
   1     -195.14162720    -195.14162720     0.00D+00     0.42D-01     0     0       9.83     19.39    start
   2     -195.20208274      -0.06045554     0.28D-02     0.39D-02     1     0       9.76     29.15    diag
   3     -195.20949193      -0.00740918     0.10D-02     0.12D-02     2     0       9.68     38.83    diag
   4     -195.21070388      -0.00121195     0.34D-03     0.48D-03     3     0       9.76     48.59    diag
   5     -195.21073334      -0.00002946     0.55D-04     0.10D-03     4     0       9.75     58.34    diag
   6     -195.21073728      -0.00000394     0.24D-04     0.32D-04     5     0       9.70     68.04    diag
   7     -195.21073748      -0.00000020     0.46D-05     0.94D-05     6     0       9.72     77.76    diag
   8     -195.21073749      -0.00000001     0.12D-05     0.23D-05     7     0       9.71     87.47    fixocc
   9     -195.21073749      -0.00000000     0.31D-06     0.56D-06     8     0       9.60     97.07    diag
  10     -195.21073750      -0.00000000     0.84D-07     0.13D-06     0     0       9.80    106.87    diag/orth

 Final occupancy:  20

 !RHF STATE 1.1 Energy               -195.210737495056
  RHF One-electron energy            -599.577086275396
  RHF Two-electron energy             233.878602529730
  RHF Kinetic energy                  194.809778044657
  RHF Nuclear energy                  170.487746250610
  RHF Virial quotient                  -1.002058210088

 !RHF STATE 1.1 Dipole moment          -0.07573577    -0.01855249    -0.06670180
 Dipole moment /Debye                  -0.19250112    -0.04715572    -0.16953906

 Orbital energies:

           1.1          2.1          3.1          4.1          5.1          6.1          7.1          8.1          9.1         10.1
    -11.225145   -11.225001   -11.221503   -11.220608   -11.216327    -1.082021    -1.012225    -0.924373    -0.840047    -0.717557

          11.1         12.1         13.1         14.1         15.1         16.1         17.1         18.1         19.1         20.1
     -0.650360    -0.593512    -0.584338    -0.559443    -0.529722    -0.515941    -0.509623    -0.482324    -0.459533    -0.340341

          21.1         22.1
      0.138429     0.156898


 HOMO     20.1    -0.340341 =      -9.2612eV
 LUMO     21.1     0.138429 =       3.7669eV
 LUMO-HOMO         0.478771 =      13.0280eV

 Orbitals saved in record  2100.2


 **********************************************************************************************************************************
 DATASETS  * FILE   NREC   LENGTH (MB)   RECORD NAMES
              1      19     2447.21       500      610      700      900      950      970     1000      129      960     1100   
                                          VAR    BASINP    GEOM    SYMINP    ZMAT    AOBASIS   BASIS     P2S    ABASIS      S 
                                         1400     1410     1200     1210     1080     1600     1650     1300     1700   
                                           T        V       H0       H01     AOSYM     SMH    MOLCAS    ERIS     OPER   

              2       4        1.94       700     1000      520     2100   
                                         GEOM     BASIS   MCVARS     RHF  

 PROGRAMS   *        TOTAL    HF-SCF       INT
 CPU TIMES  *       177.59    106.87     70.57
 REAL TIME  *       212.73 SEC
 DISK USED  *        10.48 GB
 **********************************************************************************************************************************


 PROGRAM * PAPT (Closed-shell)     Authors: C. Hampel, H.-J. Werner, 1991, P.J. Knowles, 2021


 Convergence thresholds:  THRVAR = 1.00D-08  THRDEN = 1.00D-06

 Number of core orbitals:           5 (   5 )
 Number of closed-shell orbitals:  15 (  15 )
 Number of external orbitals:     270 ( 270 )

 Molecular orbitals read from record     2100.2  Type=RHF/CANONICAL  

 Number of N-1 electron functions:              15
 Number of N-2 electron functions:             120
 Number of singly external CSFs:              4050
 Number of doubly external CSFs:           8203275
 Total number of CSFs:                     8207326

 Length of J-op  integral file:               0.00 MB
 Length of K-op  integral file:               5.84 MB

 Integral transformation finished. Total CPU:  24.90 sec, npass=  1  Memory used:  18.41 MW

 Reference energy:                   -195.21073750

                        CORR.ENERGY   TOTAL ENERGY   ENERGY CHANGE
 MP2:                   -0.86031275  -196.07105025    -0.86031275

 SCS-MP2 correlation energy:           -0.86770407   (PS=  1.200000  PT=  0.333333)
 SCS-MP2 total energy:               -196.07844157
 Iteration:   1     0.2421D+00
 Iteration:   2     0.3348D+00
 Iteration:   3     0.8644D-01
 Iteration:   4     0.9926D-01
 Iteration:   5     0.4810D-01
 Iteration:   6     0.3020D-01
 Iteration:   7     0.5046D-01
 Iteration:   8     0.1558D-01
 Iteration:   9     0.8862D-01
 Iteration:  10     0.1025D-01
 Iteration:  11     0.1252D-01
 Iteration:  12     0.1233D-01
 Iteration:  13     0.6842D-02
 Iteration:  14     0.2021D-01
 Iteration:  15     0.2866D-02
 Iteration:  16     0.4586D-02
 Iteration:  17     0.1333D-02
 Iteration:  18     0.8075D-03
 Iteration:  19     0.1212D-01
 Iteration:  20     0.3108D-03
 Iteration:  21     0.3215D-03
 Iteration:  22     0.2710D-03
 Iteration:  23     0.8463D-04
 PAPT operator written to  7000.1
 PAPT orbitals and eigenvalues written to  7000.2

 MP3(D):                -0.91062254  -196.12136003    -0.05030979



 RESULTS
 =======

  Reference energy                   -195.210737495057
  MP3 singlet pair energy              -0.637153853521
  MP3 triplet pair energy              -0.273468685324
  MP3 correlation energy               -0.910622538845

 !MP3 total energy                   -196.121360033901

 Timing summary (sec):

 STEP                 CPU(USER)    SYS     CPU(TOT)    WALL
 Transformation         25.86      1.15     27.01     27.69
 CCSD iterations       330.10      2.39    332.49    160.19

 Program statistics:

 Available memory in ccsd:               805305448
 Min. memory needed in ccsd:              20248374
 Max. memory used in ccsd:                27738924
 Max. memory used in cckext:              20978367 ( 1 integral passes)



 **********************************************************************************************************************************
 DATASETS  * FILE   NREC   LENGTH (MB)   RECORD NAMES
              1      21     2564.44       500      610      700      900      950      970     1000      129      960     1100   
                                          VAR    BASINP    GEOM    SYMINP    ZMAT    AOBASIS   BASIS     P2S    ABASIS      S 
                                         1400     1410     1200     1210     1080     1600     1650     1300     1700     1380   
                                           T        V       H0       H01     AOSYM     SMH    MOLCAS    ERIS     OPER     JKOP   
                                         7000   
                                        PAPT AO    

              2       5        3.97       700     1000      520     2100     7000   
                                         GEOM     BASIS   MCVARS     RHF     PAPT   

 PROGRAMS   *        TOTAL      PAPT    HF-SCF       INT
 CPU TIMES  *       355.69    178.10    106.87     70.57
 REAL TIME  *       400.68 SEC
 DISK USED  *        10.48 GB
 **********************************************************************************************************************************


 PROGRAM * MP2 (Closed-shell)     Authors: C. Hampel, H.-J. Werner, 1991, M. Deegan, P.J. Knowles, 1992


 Convergence thresholds:  THRVAR = 1.00D-08  THRDEN = 1.00D-06

 Number of core orbitals:           5 (   5 )
 Number of closed-shell orbitals:  15 (  15 )
 Number of external orbitals:     270 ( 270 )

 Molecular orbitals read from record     7000.2  Type=PAPT/CANONICAL (state 1.1)

 Number of N-1 electron functions:              15
 Number of N-2 electron functions:             120
 Number of singly external CSFs:              4050
 Number of doubly external CSFs:           8203275
 Total number of CSFs:                     8207326

 Length of J-op  integral file:               0.00 MB
 Length of K-op  integral file:               5.84 MB

 Integral transformation finished. Total CPU:  23.63 sec, npass=  1  Memory used:  18.41 MW
 Orbital energies read from record       7000.2  Type=PAPT/CANONICAL (state 1.1)

 Memory needed for MP2:                      0.41 MW

 SCS-MP2 correlation energy:           -0.933513068303   (PS=  1.200000  PT=  0.333333)
 SCS-MP2 total energy:               -196.144250563359


  Reference energy                   -195.210737495057
  MP2 singlet pair energy              -0.623589457752
  MP2 triplet pair energy              -0.297652048394
  MP2 correlation energy               -0.921241506145

 !MP2 total energy                   -196.131979001202


 **********************************************************************************************************************************
 DATASETS  * FILE   NREC   LENGTH (MB)   RECORD NAMES
              1      21     2564.44       500      610      700      900      950      970     1000      129      960     1100   
                                          VAR    BASINP    GEOM    SYMINP    ZMAT    AOBASIS   BASIS     P2S    ABASIS      S 
                                         1400     1410     1200     1210     1080     1600     1650     1300     1700     1380   
                                           T        V       H0       H01     AOSYM     SMH    MOLCAS    ERIS     OPER     JKOP   
                                         7000   
                                        PAPT AO    

              2       5        3.97       700     1000      520     2100     7000   
                                         GEOM     BASIS   MCVARS     RHF     PAPT   

 PROGRAMS   *        TOTAL       MP2      PAPT    HF-SCF       INT
 CPU TIMES  *       390.21     34.51    178.10    106.87     70.57
 REAL TIME  *       437.80 SEC
 DISK USED  *        10.48 GB
 **********************************************************************************************************************************

 Dump information in style XML to xml output                                                                      

 Orbitals will not be exported.

 **********************************************************************************************************************************

 MP2/cc-pVTZ energy=   -196.131979001202

             MP2            PAPT          HF-SCF
   -196.13197900   -196.12136003   -195.21073750
 **********************************************************************************************************************************
 Molpro calculation terminated
