
 Working directory              : /home/jovyan/scratch/molpro.QZX4DKMhru/
 Global scratch directory       : /home/jovyan/scratch/molpro.QZX4DKMhru/
 Wavefunction directory         : /home/jovyan/wfu/
 Main file repository           : /home/jovyan/scratch/molpro.QZX4DKMhru/

 id        : cardiff

 Nodes                nprocs
 jupyter-c-2efrancisan    1
 GA implementation: MPI file
 GA implementation (serial work in mppx): MPI file

 Using customized tuning parameters: mindgm=1; mindgv=20; mindgc=4; mindgr=1; noblas=0; minvec=7
 default implementation of scratch files=df  


 Variables initialized (1031), CPU time= 0.00 sec
 
 
 
 geometry={
 20
  C    -0.0207058   -0.7667877    0.0000000
  C     0.0207058    0.7667877    0.0000000
  C     0.6956377    1.3103885    1.2529874
  C     0.6956377    1.3103885   -1.2529874
  H    -1.0164326    1.1164572    0.0000000
  C    -0.6956377   -1.3103885   -1.2529874
  C    -0.6956377   -1.3103885    1.2529874
  H     1.0164326   -1.1164572    0.0000000
  H     0.8029041    2.3913793    1.1998404
  H     0.1285111    1.0817107    2.1497585
  H     1.6917129    0.8829484    1.3708423
  H     0.1285111    1.0817107   -2.1497585
  H     0.8029041    2.3913793   -1.1998404
  H     1.6917129    0.8829484   -1.3708423
  H    -0.8029041   -2.3913793    1.1998404
  H    -0.1285111   -1.0817107    2.1497585
  H    -1.6917129   -0.8829484    1.3708423
  H    -0.8029041   -2.3913793   -1.1998404
  H    -1.6917129   -0.8829484   -1.3708423
  H    -0.1285111   -1.0817107   -2.1497585
 }
 basis=cc-pVTZ
 angstrom
 
 
 hf; ccsd(t)
 
 
 
 {put,xml;noorbitals,nobasis}
 Commands initialized (841), CPU time= 0.00 sec, 704 directives.
 Default parameters read. Elapsed time= 0.08 sec

 Checking input...
 Passed
1


                                         ***  PROGRAM SYSTEM MOLPRO  ***
                                       Copyright, TTI GmbH Stuttgart, 2015
                                    Version 2023.1 linked Mon Jun  5 13:27:10 2023


 **********************************************************************************************************************************
 LABEL *                                                                                                                                                                 
  (16 PROC) 64 bit serial version                                                        DATE: 04-Aug-23          TIME: 09:56:53  
 **********************************************************************************************************************************

 SHA1:             9738a14712571edd23541b6d7c4f3a3d766f8287
 **********************************************************************************************************************************

 Memory per process:       805 MW
 Total memory per node:   1074 MW
 Total GA space:           268 MW

 GA preallocation disabled
 GA check enabled

 Geometry recognized as XYZ


 Variable memory set to 805.3 MW

 SETTING BASIS          =    CC-PVTZ


 Recomputing integrals since basis changed


 Using spherical harmonics

 Library entry C      S cc-pVTZ              selected for orbital group  1
 Library entry C      P cc-pVTZ              selected for orbital group  1
 Library entry C      D cc-pVTZ              selected for orbital group  1
 Library entry C      F cc-pVTZ              selected for orbital group  1
 Library entry H      S cc-pVTZ              selected for orbital group  2
 Library entry H      P cc-pVTZ              selected for orbital group  2
 Library entry H      D cc-pVTZ              selected for orbital group  2


 PROGRAM * SEWARD (Integral evaluation for generally contracted gaussian basis sets)     Author: Roland Lindh, 1990

 Geometry written to block  1 of record 700


 Point group  C2h 



 ATOMIC COORDINATES

 NR  ATOM    CHARGE       X              Y              Z

   1  C       6.00   -0.039128291   -1.449018749    0.000000000
   2  C       6.00    0.039128291    1.449018749    0.000000000
   3  C       6.00    1.314564735    2.476275382    2.367803024
   4  C       6.00    1.314564735    2.476275382   -2.367803024
   5  C       6.00   -1.314564735   -2.476275382   -2.367803024
   6  C       6.00   -1.314564735   -2.476275382    2.367803024
   7  H       1.00   -1.920779238    2.109798338    0.000000000
   8  H       1.00    1.920779238   -2.109798338    0.000000000
   9  H       1.00    1.517268853    4.519051937    2.267369749
  10  H       1.00    1.517268853    4.519051937   -2.267369749
  11  H       1.00   -1.517268853   -4.519051937    2.267369749
  12  H       1.00   -1.517268853   -4.519051937   -2.267369749
  13  H       1.00    0.242850783    2.044136969    4.062454799
  14  H       1.00    0.242850783    2.044136969   -4.062454799
  15  H       1.00   -0.242850783   -2.044136969    4.062454799
  16  H       1.00   -0.242850783   -2.044136969   -4.062454799
  17  H       1.00    3.196874062    1.668530658    2.590516507
  18  H       1.00    3.196874062    1.668530658   -2.590516507
  19  H       1.00   -3.196874062   -1.668530658    2.590516507
  20  H       1.00   -3.196874062   -1.668530658   -2.590516507

 Bond lengths in Bohr (Angstrom)

 1-2  2.899093898  1-5  2.878972989  1-6  2.878972989  1-8  2.068300556  2-3  2.878972989
     ( 1.534134423)     ( 1.523486897)     ( 1.523486897)     ( 1.094497519)     ( 1.523486897)

  2- 4  2.878972989   2- 7  2.068300556   3- 9  2.055264425   3-13  2.051136037   3-17  2.060374053
       ( 1.523486897)       ( 1.094497519)       ( 1.087599096)       ( 1.085414447)       ( 1.090302995)

  4-10  2.055264425   4-14  2.051136037   4-18  2.060374053   5-12  2.055264425   5-16  2.051136037
       ( 1.087599096)       ( 1.085414447)       ( 1.090302995)       ( 1.087599096)       ( 1.085414447)

  5-20  2.060374053   6-11  2.055264425   6-15  2.051136037   6-19  2.060374053
       ( 1.090302995)       ( 1.087599096)       ( 1.085414447)       ( 1.090302995)

 Bond angles

  1- 2- 3  111.63189875   1- 2- 4  111.63189875   1- 2- 7  107.08464970   1- 5-12  110.98656281

  1- 5-16  111.89191699   1- 5-20  110.71670868   1- 6-11  110.98656281   1- 6-15  111.89191699

  1- 6-19  110.71670868   2- 1- 5  111.63189875   2- 1- 6  111.63189875   2- 1- 8  107.08464970

  2- 3- 9  110.98656281   2- 3-13  111.89191699   2- 3-17  110.71670868   2- 4-10  110.98656281

  2- 4-14  111.89191699   2- 4-18  110.71670868   3- 2- 4  110.66102955   3- 2- 7  107.80666685

  4-2-7  107.80666685   5-1-6  110.66102955   5-1-8  107.80666685   6-1-8  107.80666685

  9- 3-13  107.53618669   9- 3-17  107.74823130  10- 4-14  107.53618669  10- 4-18  107.74823130

 11- 6-15  107.53618669  11- 6-19  107.74823130  12- 5-16  107.53618669  12- 5-20  107.74823130

 13- 3-17  107.78457437  14- 4-18  107.78457437  15- 6-19  107.78457437  16- 5-20  107.78457437

 NUCLEAR CHARGE:                   50
 NUMBER OF PRIMITIVE AOS:         520
 NUMBER OF SYMMETRY AOS:          476
 NUMBER OF CONTRACTIONS:          376   (  102Ag  +   86Au  +  102Bu  +   86Bg  )
 NUMBER OF INNER CORE ORBITALS:     0   (    0Ag  +    0Au  +    0Bu  +    0Bg  )
 NUMBER OF OUTER CORE ORBITALS:     6   (    2Ag  +    1Au  +    2Bu  +    1Bg  )
 NUMBER OF VALENCE ORBITALS:       38   (   11Ag  +    8Au  +   11Bu  +    8Bg  )


 NUCLEAR REPULSION ENERGY  264.52669409

 Eigenvalues of metric

         1 0.810E-03 0.858E-03 0.114E-02 0.149E-02 0.160E-02 0.218E-02 0.419E-02 0.456E-02
         2 0.570E-03 0.116E-02 0.136E-02 0.153E-02 0.223E-02 0.467E-02 0.835E-02 0.941E-02
         3 0.380E-03 0.828E-03 0.106E-02 0.121E-02 0.134E-02 0.164E-02 0.226E-02 0.253E-02
         4 0.865E-03 0.113E-02 0.125E-02 0.145E-02 0.267E-02 0.374E-02 0.615E-02 0.769E-02


 Contracted 2-electron integrals neglected if value below      1.0D-11
 AO integral compression algorithm  1   Integral accuracy      1.0D-11

     3149.136 MB (compressed) written to integral file ( 52.2%)


 NUMBER OF SORTED TWO-ELECTRON INTEGRALS:  633026982.     BUFFER LENGTH:  32768
 NUMBER OF SEGMENTS:  20  SEGMENT LENGTH:   31997916      RECORD LENGTH: 524288

 Memory used in sort:      32.55 MW

 SORT1 READ   754006312. AND WROTE   632830404. INTEGRALS IN   1821 RECORDS. CPU TIME:    20.97 SEC, REAL TIME:    28.69 SEC
 SORT2 READ   632830404. AND WROTE   633026982. INTEGRALS IN  12013 RECORDS. CPU TIME:    13.72 SEC, REAL TIME:    19.88 SEC

 FILE SIZES:   FILE 1:  3182.4 MBYTE,  FILE 4:  7637.9 MBYTE,   TOTAL:  10820.3 MBYTE

 OPERATOR DM      FOR CENTER  0  COORDINATES:    0.000000    0.000000    0.000000


 **********************************************************************************************************************************
 DATASETS  * FILE   NREC   LENGTH (MB)   RECORD NAMES
              1      19     2631.47       500      610      700      900      950      970     1000      129      960     1100   
                                          VAR    BASINP    GEOM    SYMINP    ZMAT    AOBASIS   BASIS     P2S    ABASIS      S 
                                         1400     1410     1200     1210     1080     1600     1650     1300     1700   
                                           T        V       H0       H01     AOSYM     SMH    MOLCAS    ERIS     OPER   

 PROGRAMS   *        TOTAL       INT
 CPU TIMES  *       200.53    200.40
 REAL TIME  *       223.03 SEC
 DISK USED  *        10.08 GB
 **********************************************************************************************************************************


 Program * Restricted Hartree-Fock

 Orbital guess generated from atomic densities. Full valence occupancy:   13   9  13   9

 Initial occupancy:   8   5   7   5

 NELEC=   50   SYM=1   MS2= 0   THRE=1.0D-08   THRD=3.2D-06   THRG=3.2D-06  HFMA2=F  DIIS_START=2   DIIS_MAX=10   DIIS_INCORE=F

 Level shifts:    0.00 (CLOSED)    0.00 (OPEN)    0.30 (GAP_MIN)

 ITER           ETOT              DE          GRAD        DDIFF     DIIS  NEXP   TIME(IT)  TIME(TOT)  DIAG
   1     -235.35221329    -235.35221329     0.00D+00     0.73D-01     0     0       2.31      4.50    start
   2     -235.43335346      -0.08114017     0.51D-02     0.72D-02     1     0       2.30      6.80    diag
   3     -235.44387049      -0.01051703     0.20D-02     0.22D-02     2     0       2.33      9.13    diag
   4     -235.44552580      -0.00165530     0.66D-03     0.82D-03     3     0       2.34     11.47    diag
   5     -235.44557690      -0.00005110     0.13D-03     0.18D-03     4     0       2.26     13.73    diag
   6     -235.44558186      -0.00000496     0.38D-04     0.71D-04     5     0       2.33     16.06    diag
   7     -235.44558197      -0.00000011     0.44D-05     0.13D-04     6     0       2.27     18.33    diag
   8     -235.44558197      -0.00000000     0.82D-06     0.21D-05     7     0       2.33     20.66    fixocc
   9     -235.44558197      -0.00000000     0.20D-06     0.36D-06     0     0       2.32     22.98    diag

 Final occupancy:   8   5   7   5

 !RHF STATE 1.1 Energy               -235.445581971875
  RHF One-electron energy            -840.631259537936
  RHF Two-electron energy             340.658983477881
  RHF Kinetic energy                  235.344843236433
  RHF Nuclear energy                  264.526694088179
  RHF Virial quotient                  -1.000428047346

 !RHF STATE 1.1 Dipole moment           0.00000000     0.00000000     0.00000000
 Dipole moment /Debye                   0.00000000     0.00000000     0.00000000

 Orbital energies:

           1.1          2.1          3.1          4.1          5.1          6.1          7.1          8.1          9.1         10.1
    -11.217862   -11.203631    -1.106649    -0.830827    -0.622908    -0.589998    -0.451219    -0.436864     0.141989     0.199073

           1.2          2.2          3.2          4.2          5.2          6.2          7.2
    -11.203654    -0.942784    -0.581319    -0.527534    -0.500344     0.169968     0.247581

           1.3          2.3          3.3          4.3          5.3          6.3          7.3          8.3          9.3
    -11.217255   -11.203632    -1.011647    -0.750411    -0.625980    -0.543995    -0.478031     0.163006     0.166018

           1.4          2.4          3.4          4.4          5.4          6.4          7.4
    -11.203661    -0.911000    -0.541980    -0.509211    -0.444253     0.214241     0.237186


 HOMO      8.1    -0.436864 =     -11.8877eV
 LUMO      9.1     0.141989 =       3.8637eV
 LUMO-HOMO         0.578854 =      15.7514eV

 Orbitals saved in record  2100.2


 **********************************************************************************************************************************
 DATASETS  * FILE   NREC   LENGTH (MB)   RECORD NAMES
              1      19     2631.47       500      610      700      900      950      970     1000      129      960     1100   
                                          VAR    BASINP    GEOM    SYMINP    ZMAT    AOBASIS   BASIS     P2S    ABASIS      S 
                                         1400     1410     1200     1210     1080     1600     1650     1300     1700   
                                           T        V       H0       H01     AOSYM     SMH    MOLCAS    ERIS     OPER   

              2       4        1.31       700     1000      520     2100   
                                         GEOM     BASIS   MCVARS     RHF  

 PROGRAMS   *        TOTAL    HF-SCF       INT
 CPU TIMES  *       223.51     22.98    200.40
 REAL TIME  *       250.98 SEC
 DISK USED  *        10.08 GB
 **********************************************************************************************************************************


 PROGRAM * CCSD (Closed-shell coupled cluster)     Authors: C. Hampel, H.-J. Werner, 1991, M. Deegan, P.J. Knowles, 1992


 Convergence thresholds:  THRVAR = 1.00D-08  THRDEN = 1.00D-06

 CCSD(T)     terms to be evaluated (factor= 1.000)


 Number of core orbitals:           6 (   2   1   2   1 )
 Number of closed-shell orbitals:  19 (   6   4   5   4 )
 Number of external orbitals:     351 (  94  81  95  81 )

 Molecular orbitals read from record     2100.2  Type=RHF/CANONICAL  

 Number of N-1 electron functions:              19
 Number of N-2 electron functions:             190
 Number of singly external CSFs:              1687
 Number of doubly external CSFs:           5563600
 Total number of CSFs:                     5565288

 Length of J-op  integral file:               0.00 MB
 Length of K-op  integral file:               2.51 MB
 Length of 3-ext integral record:             0.00 MB

 Memory could be reduced to 245.31 Mwords without degradation in triples

 Integral transformation finished. Total CPU:  26.55 sec, npass=  1  Memory used:  52.57 MW

 Reference energy:                   -235.44558197

 MP2 singlet pair energy:              -0.72121102
 MP2 triplet pair energy:              -0.35399296
 MP2 correlation energy:               -1.07520398
 MP2 total energy:                   -236.52078595

 SCS-MP2 correlation energy:           -1.08571551   (PS=  1.200000  PT=  0.333333)
 SCS-MP2 total energy:               -236.53129748

 ITER.      SQ.NORM     CORR.ENERGY   TOTAL ENERGY   ENERGY CHANGE        DEN1      VAR(S)    VAR(P)  DIIS     TIME  TIME/IT
   1      1.36400964    -1.13949370  -236.58507567    -0.06428972    -0.03759328  0.31D-02  0.53D-02  1  1   279.54    31.49
   2      1.38896023    -1.14405761  -236.58963958    -0.00456391    -0.02618117  0.50D-04  0.51D-03  2  2   308.90    31.20
   3      1.39564164    -1.14408936  -236.58967133    -0.00003175    -0.00432160  0.11D-04  0.28D-04  3  3   339.01    31.39
   4      1.39725954    -1.14413679  -236.58971876    -0.00004744    -0.00073514  0.73D-06  0.18D-05  4  4   368.43    31.26
   5      1.39751145    -1.14414200  -236.58972397    -0.00000520    -0.00008878  0.60D-07  0.14D-06  5  5   397.89    31.20
   6      1.39754808    -1.14413783  -236.58971980     0.00000416    -0.00001320  0.61D-08  0.93D-08  6  6   427.42    31.17
   7      1.39754904    -1.14413745  -236.58971942     0.00000038    -0.00000018  0.78D-09  0.84D-09  6  2   456.90    31.13
   8      1.39754972    -1.14413737  -236.58971935     0.00000007    -0.00000049  0.11D-09  0.78D-10  6  1   486.40    31.11

 Norm of t1 vector:      0.07264979      S-energy:    -0.00000001      T1 diagnostic:  0.00833350
                                                                       D1 diagnostic:  0.01685692
                                                                       D2 diagnostic:  0.14568134 (internal)
