
 Working directory              : /home/jovyan/scratch/molpro.y92ubphIpy/
 Global scratch directory       : /home/jovyan/scratch/molpro.y92ubphIpy/
 Wavefunction directory         : /home/jovyan/wfu/
 Main file repository           : /home/jovyan/scratch/molpro.y92ubphIpy/

 id        : cardiff

 Nodes                nprocs
 jupyter-c-2efrancisan    1
 GA implementation: MPI file
 GA implementation (serial work in mppx): MPI file

 Using customized tuning parameters: mindgm=1; mindgv=20; mindgc=4; mindgr=1; noblas=0; minvec=7
 default implementation of scratch files=df  


 Variables initialized (1031), CPU time= 0.00 sec
 
 
 
 geometry={
 4
  2HF (cyc) (Full point group Cs)
  H 0.147515 0.503025 0.000000
  F 0.037922 -1.303125 0.000000
  F 0.037922 1.428195 0.000000
  H -0.830110 -1.628660 0.000000
 }
 basis=cc-pVTZ
 angstrom
 
 
 hf; mp3
 
 
 
 {put,xml;noorbitals,nobasis}
 Commands initialized (841), CPU time= 0.01 sec, 704 directives.
 Default parameters read. Elapsed time= 0.10 sec

 Checking input...
 Passed
1


                                         ***  PROGRAM SYSTEM MOLPRO  ***
                                       Copyright, TTI GmbH Stuttgart, 2015
                                    Version 2023.1 linked Mon Jun  5 13:27:10 2023


 **********************************************************************************************************************************
 LABEL *                                                                                                                                                                 
  (16 PROC) 64 bit serial version                                                        DATE: 03-Aug-23          TIME: 12:41:06  
 **********************************************************************************************************************************

 SHA1:             9738a14712571edd23541b6d7c4f3a3d766f8287
 **********************************************************************************************************************************

 Memory per process:       805 MW
 Total memory per node:   1074 MW
 Total GA space:           268 MW

 GA preallocation disabled
 GA check enabled

 Geometry recognized as XYZ


 Variable memory set to 805.3 MW

 SETTING BASIS          =    CC-PVTZ


 Recomputing integrals since basis changed


 Using spherical harmonics

 Library entry H      S cc-pVTZ              selected for orbital group  1
 Library entry H      P cc-pVTZ              selected for orbital group  1
 Library entry H      D cc-pVTZ              selected for orbital group  1
 Library entry F      S cc-pVTZ              selected for orbital group  2
 Library entry F      P cc-pVTZ              selected for orbital group  2
 Library entry F      D cc-pVTZ              selected for orbital group  2
 Library entry F      F cc-pVTZ              selected for orbital group  2


 PROGRAM * SEWARD (Integral evaluation for generally contracted gaussian basis sets)     Author: Roland Lindh, 1990

 Geometry written to block  1 of record 700


 Point group  Cs  



 ATOMIC COORDINATES

 NR  ATOM    CHARGE       X              Y              Z

   1  H       1.00    0.278762949    0.950579484    0.000000000
   2  F       9.00    0.071662194   -2.462549356    0.000000000
   3  F       9.00    0.071662194    2.698897403    0.000000000
   4  H       1.00   -1.568680553   -3.077721350    0.000000000

 Bond lengths in Bohr (Angstrom)

 1-3  1.760541470  2-4  1.751902084
     ( 0.931638425)     ( 0.927066658)

 NUCLEAR CHARGE:                   20
 NUMBER OF PRIMITIVE AOS:         128
 NUMBER OF SYMMETRY AOS:          116
 NUMBER OF CONTRACTIONS:           88   (   60A'  +   28A"  )
 NUMBER OF INNER CORE ORBITALS:     0   (    0A'  +    0A"  )
 NUMBER OF OUTER CORE ORBITALS:     2   (    2A'  +    0A"  )
 NUMBER OF VALENCE ORBITALS:       10   (    8A'  +    2A"  )


 NUCLEAR REPULSION ENERGY   30.29904319


 Eigenvalues of metric

         1 0.326E-02 0.353E-02 0.837E-02 0.893E-02 0.102E-01 0.104E-01 0.478E-01 0.493E-01
         2 0.491E-01 0.494E-01 0.125E+00 0.145E+00 0.250E+00 0.285E+00 0.435E+00 0.459E+00


 Contracted 2-electron integrals neglected if value below      1.0D-11
 AO integral compression algorithm  1   Integral accuracy      1.0D-11

     14.942 MB (compressed) written to integral file ( 39.0%)


 NUMBER OF SORTED TWO-ELECTRON INTEGRALS:    3986926.     BUFFER LENGTH:  32768
 NUMBER OF SEGMENTS:   1  SEGMENT LENGTH:    3986926      RECORD LENGTH: 524288

 Memory used in sort:       4.54 MW

 SORT1 READ     4792268. AND WROTE     3035607. INTEGRALS IN      9 RECORDS. CPU TIME:     0.06 SEC, REAL TIME:     0.19 SEC
 SORT2 READ     3035607. AND WROTE     3986926. INTEGRALS IN     57 RECORDS. CPU TIME:     0.12 SEC, REAL TIME:     0.15 SEC

 FILE SIZES:   FILE 1:    45.2 MBYTE,  FILE 4:    37.8 MBYTE,   TOTAL:     83.0 MBYTE

 OPERATOR DM      FOR CENTER  0  COORDINATES:    0.000000    0.000000    0.000000


 **********************************************************************************************************************************
 DATASETS  * FILE   NREC   LENGTH (MB)   RECORD NAMES
              1      19       40.79       500      610      700      900      950      970     1000      129      960     1100   
                                          VAR    BASINP    GEOM    SYMINP    ZMAT    AOBASIS   BASIS     P2S    ABASIS      S 
                                         1400     1410     1200     1210     1080     1600     1650     1300     1700   
                                           T        V       H0       H01     AOSYM     SMH    MOLCAS    ERIS     OPER   

 PROGRAMS   *        TOTAL       INT
 CPU TIMES  *         1.23      1.09
 REAL TIME  *         9.03 SEC
 DISK USED  *        79.56 MB
 **********************************************************************************************************************************


 Program * Restricted Hartree-Fock

 Orbital guess generated from atomic densities. Full valence occupancy:   10   2

 Initial occupancy:   8   2

 NELEC=   20   SYM=1   MS2= 0   THRE=1.0D-08   THRD=3.2D-06   THRG=3.2D-06  HFMA2=F  DIIS_START=2   DIIS_MAX=10   DIIS_INCORE=F

 Level shifts:    0.00 (CLOSED)    0.00 (OPEN)    0.30 (GAP_MIN)

 ITER           ETOT              DE          GRAD        DDIFF     DIIS  NEXP   TIME(IT)  TIME(TOT)  DIAG
   1     -200.07503859    -200.07503859     0.00D+00     0.13D+00     0     0       0.04      0.08    start
   2     -200.11186722      -0.03682863     0.12D-01     0.18D-01     1     0       0.03      0.11    diag
   3     -200.12152812      -0.00966089     0.67D-02     0.50D-02     2     0       0.04      0.15    diag
   4     -200.12179125      -0.00026313     0.71D-03     0.95D-03     3     0       0.04      0.19    diag
   5     -200.12182653      -0.00003529     0.22D-03     0.34D-03     4     0       0.03      0.22    diag
   6     -200.12182920      -0.00000266     0.50D-04     0.90D-04     5     0       0.04      0.26    diag
   7     -200.12182925      -0.00000006     0.76D-05     0.15D-04     6     0       0.04      0.30    diag
   8     -200.12182925      -0.00000000     0.12D-05     0.17D-05     7     0       0.04      0.34    fixocc
   9     -200.12182925      -0.00000000     0.49D-06     0.64D-06     0     0       0.03      0.37    diag

 Final occupancy:   8   2

 !RHF STATE 1.1 Energy               -200.121829254805
  RHF One-electron energy            -340.912080958250
  RHF Two-electron energy             110.491208510177
  RHF Kinetic energy                  200.008816168598
  RHF Nuclear energy                   30.299043193268
  RHF Virial quotient                  -1.000565040524

 !RHF STATE 1.1 Dipole moment          -0.65539203    -1.21548734     0.00000000
 Dipole moment /Debye                  -1.66584038    -3.08946066     0.00000000

 Orbital energies:

           1.1          2.1          3.1          4.1          5.1          6.1          7.1          8.1          9.1         10.1
    -26.336830   -26.258446    -1.642262    -1.564691    -0.811305    -0.744822    -0.680011    -0.617256     0.113950     0.241403

           1.2          2.2          3.2          4.2
     -0.692029    -0.617184     0.798296     0.824216


 HOMO      2.2    -0.617184 =     -16.7944eV
 LUMO      9.1     0.113950 =       3.1007eV
 LUMO-HOMO         0.731134 =      19.8952eV

 Orbitals saved in record  2100.2


 **********************************************************************************************************************************
 DATASETS  * FILE   NREC   LENGTH (MB)   RECORD NAMES
              1      19       40.79       500      610      700      900      950      970     1000      129      960     1100   
                                          VAR    BASINP    GEOM    SYMINP    ZMAT    AOBASIS   BASIS     P2S    ABASIS      S 
                                         1400     1410     1200     1210     1080     1600     1650     1300     1700   
                                           T        V       H0       H01     AOSYM     SMH    MOLCAS    ERIS     OPER   

              2       4        0.50       700     1000      520     2100   
                                         GEOM     BASIS   MCVARS     RHF  

 PROGRAMS   *        TOTAL    HF-SCF       INT
 CPU TIMES  *         1.61      0.38      1.09
 REAL TIME  *        10.44 SEC
 DISK USED  *        79.56 MB
 **********************************************************************************************************************************


 PROGRAM * MP3 (Closed-shell)     Authors: C. Hampel, H.-J. Werner, 1991, M. Deegan, P.J. Knowles, 1992


 Convergence thresholds:  THRVAR = 1.00D-08  THRDEN = 1.00D-06

 Number of core orbitals:           2 (   2   0 )
 Number of closed-shell orbitals:   8 (   6   2 )
 Number of external orbitals:      78 (  52  26 )

 Molecular orbitals read from record     2100.2  Type=RHF/CANONICAL  

 Number of N-1 electron functions:               8
 Number of N-2 electron functions:              36
 Number of singly external CSFs:               364
 Number of doubly external CSFs:            100360
 Total number of CSFs:                      100725

 Length of J-op  integral file:               0.00 MB
 Length of K-op  integral file:               0.36 MB

 Integral transformation finished. Total CPU:   0.07 sec, npass=  1  Memory used:   0.25 MW

 Reference energy:                   -200.12182925

                        CORR.ENERGY   TOTAL ENERGY   ENERGY CHANGE
 MP2:                   -0.54639597  -200.66822522    -0.54639597

 SCS-MP2 correlation energy:           -0.53426815   (PS=  1.200000  PT=  0.333333)
 SCS-MP2 total energy:               -200.65609740

 MP3(D):                -0.54615447  -200.66798372     0.00024150



 RESULTS
 =======

  Reference energy                   -200.121829254805
  MP3 singlet pair energy              -0.354360460289
  MP3 triplet pair energy              -0.191794006813
  MP3 correlation energy               -0.546154467102

 !MP3 total energy                   -200.667983721906

 Timing summary (sec):

 STEP                 CPU(USER)    SYS     CPU(TOT)    WALL
 Transformation          0.07      0.01      0.08      0.20
 CCSD iterations         2.00      0.00      2.00      0.16

 Program statistics:

 Available memory in ccsd:               805306104
 Min. memory needed in ccsd:                323695
 Max. memory used in ccsd:                  404603
 Max. memory used in cckext:                452694 ( 1 integral passes)



 **********************************************************************************************************************************
 DATASETS  * FILE   NREC   LENGTH (MB)   RECORD NAMES
              1      20       42.53       500      610      700      900      950      970     1000      129      960     1100   
                                          VAR    BASINP    GEOM    SYMINP    ZMAT    AOBASIS   BASIS     P2S    ABASIS      S 
                                         1400     1410     1200     1210     1080     1600     1650     1300     1700     1380   
                                           T        V       H0       H01     AOSYM     SMH    MOLCAS    ERIS     OPER     JKOP   

              2       4        0.50       700     1000      520     2100   
                                         GEOM     BASIS   MCVARS     RHF  

 PROGRAMS   *        TOTAL       MP3    HF-SCF       INT
 CPU TIMES  *         1.87      0.26      0.38      1.09
 REAL TIME  *        10.85 SEC
 DISK USED  *        79.56 MB
 **********************************************************************************************************************************

 Dump information in style XML to xml output                                                                      

 Orbitals will not be exported.

 **********************************************************************************************************************************

 MP3/cc-pVTZ energy=   -200.667983721906

             MP3          HF-SCF
   -200.66798372   -200.12182925
 **********************************************************************************************************************************
 Molpro calculation terminated
