
 Working directory              : /home/jovyan/scratch/molpro.vnvGsnTb31/
 Global scratch directory       : /home/jovyan/scratch/molpro.vnvGsnTb31/
 Wavefunction directory         : /home/jovyan/wfu/
 Main file repository           : /home/jovyan/scratch/molpro.vnvGsnTb31/

 id        : cardiff

 Nodes                nprocs
 jupyter-c-2efrancisan    1
 GA implementation: MPI file
 GA implementation (serial work in mppx): MPI file

 Using customized tuning parameters: mindgm=1; mindgv=20; mindgc=4; mindgr=1; noblas=0; minvec=7
 default implementation of scratch files=df  


 Variables initialized (1031), CPU time= 0.01 sec
 
 
 
 geometry={
            5
     C         -1.13177830      0.15744932     -0.20511892
     H         -1.92265645      0.16979282      0.52564966
     N          0.05350137      0.12204224     -0.08218368
     N          1.28661152      0.24030428     -0.11445996
     H          1.71432186     -0.68958865     -0.12388711
 }
 basis=cc-pVTZ
 angstrom
 
 
 hf; ccsd(t)
 
 
 
 {put,xml;noorbitals,nobasis}
 Commands initialized (841), CPU time= 0.01 sec, 704 directives.
 Default parameters read. Elapsed time= 0.08 sec

 Checking input...
 Passed
1


                                         ***  PROGRAM SYSTEM MOLPRO  ***
                                       Copyright, TTI GmbH Stuttgart, 2015
                                    Version 2023.1 linked Mon Jun  5 13:27:10 2023


 **********************************************************************************************************************************
 LABEL *                                                                                                                                                                 
  (16 PROC) 64 bit serial version                                                        DATE: 03-Aug-23          TIME: 12:18:27  
 **********************************************************************************************************************************

 SHA1:             9738a14712571edd23541b6d7c4f3a3d766f8287
 **********************************************************************************************************************************

 Memory per process:       805 MW
 Total memory per node:   1074 MW
 Total GA space:           268 MW

 GA preallocation disabled
 GA check enabled

 Geometry recognized as XYZ


 Variable memory set to 805.3 MW

 SETTING BASIS          =    CC-PVTZ


 Recomputing integrals since basis changed


 Using spherical harmonics

 Library entry C      S cc-pVTZ              selected for orbital group  1
 Library entry C      P cc-pVTZ              selected for orbital group  1
 Library entry C      D cc-pVTZ              selected for orbital group  1
 Library entry C      F cc-pVTZ              selected for orbital group  1
 Library entry H      S cc-pVTZ              selected for orbital group  2
 Library entry H      P cc-pVTZ              selected for orbital group  2
 Library entry H      D cc-pVTZ              selected for orbital group  2
 Library entry N      S cc-pVTZ              selected for orbital group  3
 Library entry N      P cc-pVTZ              selected for orbital group  3
 Library entry N      D cc-pVTZ              selected for orbital group  3
 Library entry N      F cc-pVTZ              selected for orbital group  3


 PROGRAM * SEWARD (Integral evaluation for generally contracted gaussian basis sets)     Author: Roland Lindh, 1990

 Geometry written to block  1 of record 700


 Point group  C1  



 ATOMIC COORDINATES

 NR  ATOM    CHARGE       X              Y              Z

   1  C       6.00   -2.138751021    0.297536093   -0.387618582
   2  H       1.00   -3.633294122    0.320861928    0.993333895
   3  N       7.00    0.101102937    0.230626409   -0.155304647
   4  N       7.00    2.431343402    0.454109276   -0.216297977
   5  H       1.00    3.239598805   -1.303133687   -0.234112708

 Bond lengths in Bohr (Angstrom)

 1-2  2.035001946  1-3  2.252863161  3-4  2.341727013  4-5  1.934294960
     ( 1.076876654)     ( 1.192163844)     ( 1.239188569)     ( 1.023584812)

 Bond angles

  1-3-4  169.68185321   2-1-3  131.34115954   3-4-5  109.22908161

 NUCLEAR CHARGE:                   22
 NUMBER OF PRIMITIVE AOS:         175
 NUMBER OF SYMMETRY AOS:          158
 NUMBER OF CONTRACTIONS:          118   (  118A   )
 NUMBER OF INNER CORE ORBITALS:     0   (    0A   )
 NUMBER OF OUTER CORE ORBITALS:     3   (    3A   )
 NUMBER OF VALENCE ORBITALS:       14   (   14A   )


 NUCLEAR REPULSION ENERGY   61.44785679


 Eigenvalues of metric

         1 0.878E-03 0.122E-02 0.161E-02 0.219E-02 0.283E-02 0.309E-02 0.591E-02 0.830E-02


 Contracted 2-electron integrals neglected if value below      1.0D-11
 AO integral compression algorithm  1   Integral accuracy      1.0D-11

     113.246 MB (compressed) written to integral file ( 48.5%)


 NUMBER OF SORTED TWO-ELECTRON INTEGRALS:   24650731.     BUFFER LENGTH:  32768
 NUMBER OF SEGMENTS:   2  SEGMENT LENGTH:   15997996      RECORD LENGTH: 524288

 Memory used in sort:      16.56 MW

 SORT1 READ    29190753. AND WROTE    23459084. INTEGRALS IN     69 RECORDS. CPU TIME:     0.29 SEC, REAL TIME:     0.57 SEC
 SORT2 READ    23459084. AND WROTE    24650731. INTEGRALS IN    432 RECORDS. CPU TIME:     0.48 SEC, REAL TIME:     0.60 SEC

 FILE SIZES:   FILE 1:   143.8 MBYTE,  FILE 4:   289.5 MBYTE,   TOTAL:    433.3 MBYTE

 OPERATOR DM      FOR CENTER  0  COORDINATES:    0.000000    0.000000    0.000000


 **********************************************************************************************************************************
 DATASETS  * FILE   NREC   LENGTH (MB)   RECORD NAMES
              1      19      121.39       500      610      700      900      950      970     1000      129      960     1100   
                                          VAR    BASINP    GEOM    SYMINP    ZMAT    AOBASIS   BASIS     P2S    ABASIS      S 
                                         1400     1410     1200     1210     1080     1600     1650     1300     1700   
                                           T        V       H0       H01     AOSYM     SMH    MOLCAS    ERIS     OPER   

 PROGRAMS   *        TOTAL       INT
 CPU TIMES  *         2.93      2.80
 REAL TIME  *         4.62 SEC
 DISK USED  *       413.64 MB
 **********************************************************************************************************************************


 Program * Restricted Hartree-Fock

 Orbital guess generated from atomic densities. Full valence occupancy:   17

 Initial occupancy:  11

 NELEC=   22   SYM=1   MS2= 0   THRE=1.0D-08   THRD=3.2D-06   THRG=3.2D-06  HFMA2=F  DIIS_START=2   DIIS_MAX=10   DIIS_INCORE=F

 Level shifts:    0.00 (CLOSED)    0.00 (OPEN)    0.30 (GAP_MIN)

 ITER           ETOT              DE          GRAD        DDIFF     DIIS  NEXP   TIME(IT)  TIME(TOT)  DIAG
   1     -147.80364838    -147.80364838     0.00D+00     0.72D-01     0     0       0.25      0.50    start
   2     -147.83027227      -0.02662390     0.58D-02     0.77D-02     1     0       0.26      0.76    diag
   3     -147.84397973      -0.01370745     0.38D-02     0.34D-02     2     0       0.25      1.01    diag
   4     -147.84607540      -0.00209567     0.91D-03     0.13D-02     3     0       0.25      1.26    diag
   5     -147.84681673      -0.00074133     0.44D-03     0.74D-03     4     0       0.26      1.52    diag
   6     -147.84727501      -0.00045828     0.29D-03     0.64D-03     5     0       0.24      1.76    diag
   7     -147.84748593      -0.00021091     0.14D-03     0.66D-03     6     0       0.26      2.02    diag
   8     -147.84750341      -0.00001748     0.54D-04     0.20D-03     7     0       0.25      2.27    fixocc
   9     -147.84750407      -0.00000066     0.13D-04     0.36D-04     8     0       0.26      2.53    diag
  10     -147.84750412      -0.00000005     0.39D-05     0.86D-05     9     0       0.26      2.79    diag/orth
  11     -147.84750413      -0.00000000     0.11D-05     0.25D-05     9     0       0.25      3.04    diag
  12     -147.84750413      -0.00000000     0.33D-06     0.53D-06     0     0       0.25      3.29    diag

 Final occupancy:  11

 !RHF STATE 1.1 Energy               -147.847504125431
  RHF One-electron energy            -321.224372676835
  RHF Two-electron energy             111.929011759986
  RHF Kinetic energy                  147.581753418889
  RHF Nuclear energy                   61.447856791419
  RHF Virial quotient                  -1.001800701648

 !RHF STATE 1.1 Dipole moment          -0.49143857    -0.60133448     0.49772091
 Dipole moment /Debye                  -1.24911225    -1.52843979     1.26508037

 Orbital energies:

           1.1          2.1          3.1          4.1          5.1          6.1          7.1          8.1          9.1         10.1
    -15.716868   -15.596819   -11.287626    -1.393663    -1.147135    -0.796124    -0.731646    -0.637140    -0.610950    -0.416676

          11.1         12.1         13.1
     -0.348510     0.113091     0.135553


 HOMO     11.1    -0.348510 =      -9.4835eV
 LUMO     12.1     0.113091 =       3.0774eV
 LUMO-HOMO         0.461601 =      12.5608eV

 Orbitals saved in record  2100.2


 **********************************************************************************************************************************
 DATASETS  * FILE   NREC   LENGTH (MB)   RECORD NAMES
              1      19      121.39       500      610      700      900      950      970     1000      129      960     1100   
                                          VAR    BASINP    GEOM    SYMINP    ZMAT    AOBASIS   BASIS     P2S    ABASIS      S 
                                         1400     1410     1200     1210     1080     1600     1650     1300     1700   
                                           T        V       H0       H01     AOSYM     SMH    MOLCAS    ERIS     OPER   

              2       4        0.67       700     1000      520     2100   
                                         GEOM     BASIS   MCVARS     RHF  

 PROGRAMS   *        TOTAL    HF-SCF       INT
 CPU TIMES  *         6.22      3.29      2.80
 REAL TIME  *         8.19 SEC
 DISK USED  *       413.64 MB
 **********************************************************************************************************************************


 PROGRAM * CCSD (Closed-shell coupled cluster)     Authors: C. Hampel, H.-J. Werner, 1991, M. Deegan, P.J. Knowles, 1992


 Convergence thresholds:  THRVAR = 1.00D-08  THRDEN = 1.00D-06

 CCSD(T)     terms to be evaluated (factor= 1.000)


 Number of core orbitals:           3 (   3 )
 Number of closed-shell orbitals:   8 (   8 )
 Number of external orbitals:     107 ( 107 )

 Molecular orbitals read from record     2100.2  Type=RHF/CANONICAL  

 Number of N-1 electron functions:               8
 Number of N-2 electron functions:              36
 Number of singly external CSFs:               856
 Number of doubly external CSFs:            366796
 Total number of CSFs:                      367653

 Length of J-op  integral file:               0.00 MB
 Length of K-op  integral file:               1.02 MB
 Length of 3-ext integral record:             0.00 MB

 Memory could be reduced to 13.98 Mwords without degradation in triples

 Integral transformation finished. Total CPU:   0.94 sec, npass=  1  Memory used:   8.60 MW

 Reference energy:                   -147.84750413

 MP2 singlet pair energy:              -0.35533240
 MP2 triplet pair energy:              -0.22076287
 MP2 correlation energy:               -0.57609527
 MP2 total energy:                   -148.42359939

 SCS-MP2 correlation energy:           -0.56376244   (PS=  1.200000  PT=  0.333333)
 SCS-MP2 total energy:               -148.41126657

 ITER.      SQ.NORM     CORR.ENERGY   TOTAL ENERGY   ENERGY CHANGE        DEN1      VAR(S)    VAR(P)  DIIS     TIME  TIME/IT
   1      1.18322430    -0.57671518  -148.42421930    -0.00061991     0.02219725  0.73D-02  0.57D-02  1  1     8.71     1.35
   2      1.20033539    -0.57658220  -148.42408633     0.00013298    -0.01691148  0.38D-03  0.77D-03  2  2    10.02     1.38
   3      1.21184612    -0.57733491  -148.42483903    -0.00075270    -0.00414897  0.31D-03  0.73D-04  3  3    11.29     1.39
   4      1.21828995    -0.57745989  -148.42496401    -0.00012498    -0.00151851  0.74D-04  0.21D-04  4  4    12.58     1.39
   5      1.22344119    -0.57756035  -148.42506447    -0.00010046    -0.00079640  0.16D-04  0.42D-05  5  5    13.87     1.39
   6      1.22566494    -0.57753829  -148.42504242     0.00002206    -0.00020636  0.35D-05  0.81D-06  6  6    15.17     1.39
   7      1.22649917    -0.57753593  -148.42504005     0.00000236    -0.00005327  0.53D-06  0.24D-06  6  2    16.48     1.39
   8      1.22669700    -0.57753843  -148.42504256    -0.00000250    -0.00000507  0.13D-06  0.34D-07  6  1    17.78     1.39
   9      1.22681311    -0.57753841  -148.42504253     0.00000002    -0.00000665  0.96D-08  0.72D-08  6  3    19.06     1.39
  10      1.22679784    -0.57754030  -148.42504442    -0.00000189     0.00000638  0.13D-08  0.85D-09  6  5    20.35     1.39
  11      1.22681448    -0.57754024  -148.42504437     0.00000006    -0.00000189  0.62D-10  0.11D-09  6  4    21.64     1.39
  12      1.22681322    -0.57754025  -148.42504438    -0.00000001     0.00000002  0.16D-10  0.14D-10  6  6    22.93     1.39

 Norm of t1 vector:      0.15081503      S-energy:     0.00000005      T1 diagnostic:  0.02666058
                                                                       D1 diagnostic:  0.07525484
                                                                       D2 diagnostic:  0.20302908 (external, symmetry=1)

 Singles amplitudes (print threshold =  0.500E-01):

         I         SYM. A    A   T(IA)

         7         1         2      0.05389429

 Doubles amplitudes (print threshold =  0.500E-01):

         I         J         SYM. A    SYM. B    A         B      T(IJ, AB)

         8         8         1         1         1         1     -0.09855852


 Total CPU time for triples:     14.18 sec


 RESULTS
 =======

  Reference energy                   -147.847504125431
  CCSD singlet pair energy             -0.387702999562
  CCSD triplet pair energy             -0.189837303208
  CCSD correlation energy              -0.577540249962

  Triples (T) contribution             -0.033376486144
  Total correlation energy             -0.610916736107

  CCSD total energy                  -148.425044375393
  CCSD[T] energy                     -148.460614650545
  CCSD-T energy                      -148.457814241151
 !CCSD(T) total energy               -148.458420861537

 Timing summary (sec):

 STEP                 CPU(USER)    SYS     CPU(TOT)    WALL
 Transformation          0.96      0.11      1.07      1.11
 CCSD iterations        22.00      0.94     22.94     16.73
 Triples                14.18      0.43     14.61     14.75

 Program statistics:

 Available memory in ccsd:               805306101
 Min. memory needed in ccsd:               1129080
 Max. memory used in ccsd:                 1430708
 Max. memory used in cckext:               1125886 (12 integral passes)



 **********************************************************************************************************************************
 DATASETS  * FILE   NREC   LENGTH (MB)   RECORD NAMES
              1      20      165.10       500      610      700      900      950      970     1000      129      960     1100   
                                          VAR    BASINP    GEOM    SYMINP    ZMAT    AOBASIS   BASIS     P2S    ABASIS      S 
                                         1400     1410     1200     1210     1080     1600     1650     1300     1700     1380   
                                           T        V       H0       H01     AOSYM     SMH    MOLCAS    ERIS     OPER     JKOP   

              2       4        0.67       700     1000      520     2100   
                                         GEOM     BASIS   MCVARS     RHF  

 PROGRAMS   *        TOTAL   CCSD(T)    HF-SCF       INT
 CPU TIMES  *        36.91     30.68      3.29      2.80
 REAL TIME  *        40.83 SEC
 DISK USED  *       413.64 MB
 **********************************************************************************************************************************

 Dump information in style XML to xml output                                                                      

 Orbitals will not be exported.

 **********************************************************************************************************************************

 CCSD(T)/cc-pVTZ energy=   -148.458420861537

         CCSD(T)          HF-SCF
   -148.45842086   -147.84750413
 **********************************************************************************************************************************
 Molpro calculation terminated
