
 Working directory              : /home/jovyan/scratch/molpro.WjjdUHjbwM/
 Global scratch directory       : /home/jovyan/scratch/molpro.WjjdUHjbwM/
 Wavefunction directory         : /home/jovyan/wfu/
 Main file repository           : /home/jovyan/scratch/molpro.WjjdUHjbwM/

 id        : cardiff

 Nodes                nprocs
 jupyter-c-2efrancisan    1
 GA implementation: MPI file
 GA implementation (serial work in mppx): MPI file

 Using customized tuning parameters: mindgm=1; mindgv=20; mindgc=4; mindgr=1; noblas=0; minvec=7
 default implementation of scratch files=df  


 Variables initialized (1031), CPU time= 0.01 sec
 
 
 
 geometry={
 11
  C    -0.2692331    1.5323856    1.6480625
  C    -0.3350059   -1.3093287   -1.0219199
  C     0.7843782   -1.2453943   -1.7259045
  H    -0.2270821    2.5841057    1.3754968
  H     0.3752031    1.3551361    2.5057916
  H     0.0655748    0.9253778    0.8098806
  H    -1.2922149    1.2660609    1.9032646
  H    -1.2276984   -0.7725013   -1.3185237
  H    -0.4079332   -1.9000042   -0.1170863
  H     0.8570528   -0.6540376   -2.6302551
  H     1.6769587   -1.7817999   -1.4288065
 }
 basis=cc-pVTZ
 angstrom
 
 
 hf; papt;mp2
 
 
 
 {put,xml;noorbitals,nobasis}
 Commands initialized (841), CPU time= 0.01 sec, 704 directives.
 Default parameters read. Elapsed time= 0.08 sec

 Checking input...
 Passed
1


                                         ***  PROGRAM SYSTEM MOLPRO  ***
                                       Copyright, TTI GmbH Stuttgart, 2015
                                    Version 2023.1 linked Mon Jun  5 13:27:10 2023


 **********************************************************************************************************************************
 LABEL *                                                                                                                                                                 
  (16 PROC) 64 bit serial version                                                        DATE: 02-Aug-23          TIME: 15:39:46  
 **********************************************************************************************************************************

 SHA1:             9738a14712571edd23541b6d7c4f3a3d766f8287
 **********************************************************************************************************************************

 Memory per process:       805 MW
 Total memory per node:   1074 MW
 Total GA space:           268 MW

 GA preallocation disabled
 GA check enabled

 Geometry recognized as XYZ


 Variable memory set to 805.3 MW

 SETTING BASIS          =    CC-PVTZ


 Recomputing integrals since basis changed


 Using spherical harmonics

 Library entry C      S cc-pVTZ              selected for orbital group  1
 Library entry C      P cc-pVTZ              selected for orbital group  1
 Library entry C      D cc-pVTZ              selected for orbital group  1
 Library entry C      F cc-pVTZ              selected for orbital group  1
 Library entry H      S cc-pVTZ              selected for orbital group  2
 Library entry H      P cc-pVTZ              selected for orbital group  2
 Library entry H      D cc-pVTZ              selected for orbital group  2


 PROGRAM * SEWARD (Integral evaluation for generally contracted gaussian basis sets)     Author: Roland Lindh, 1990

 Geometry written to block  1 of record 700


 Point group  C1  



 ATOMIC COORDINATES

 NR  ATOM    CHARGE       X              Y              Z

   1  C       6.00   -0.508776823    2.895789101    3.114386761
   2  C       6.00   -0.633069401   -2.474272650   -1.931148732
   3  C       6.00    1.482259976   -2.353454144   -3.261486822
   4  H       1.00   -0.429122977    4.883252050    2.599312237
   5  H       1.00    0.709031100    2.560836091    4.735259849
   6  H       1.00    0.123918413    1.748710604    1.530452528
   7  H       1.00   -2.441932255    2.392508358    3.596648837
   8  H       1.00   -2.320013740   -1.459815888   -2.491648682
   9  H       1.00   -0.770882025   -3.590487574   -0.221261040
  10  H       1.00    1.619595066   -1.235951939   -4.970461777
  11  H       1.00    3.168992665   -3.367113820   -2.700052970

 Bond lengths in Bohr (Angstrom)

 1-4  2.054666755  1-5  2.054867203  1-6  2.055465883  1-7  2.054983733  2-3  2.501802334
     ( 1.087282823)     ( 1.087388896)     ( 1.087705703)     ( 1.087450560)     ( 1.323896781)

  2- 8  2.046720283   2- 9  2.046617696   3-10  2.046525715   3-11  2.046406869
       ( 1.083077731)       ( 1.083023444)       ( 1.082974770)       ( 1.082911879)

 Bond angles

  2- 3-10  121.81347378   2- 3-11  121.81015358   3- 2- 8  121.82569891   3- 2- 9  121.83912347

  4-1-5  109.41679654   4-1-6  109.55426141   4-1-7  109.40215530   5-1-6  109.53935655

  5- 1- 7  109.41910421   6- 1- 7  109.49545271   8- 2- 9  116.33511298  10- 3-11  116.37637094

 NUCLEAR CHARGE:                   26
 NUMBER OF PRIMITIVE AOS:         277
 NUMBER OF SYMMETRY AOS:          254
 NUMBER OF CONTRACTIONS:          202   (  202A   )
 NUMBER OF INNER CORE ORBITALS:     0   (    0A   )
 NUMBER OF OUTER CORE ORBITALS:     3   (    3A   )
 NUMBER OF VALENCE ORBITALS:       20   (   20A   )


 NUCLEAR REPULSION ENERGY   67.10502103


 Eigenvalues of metric

         1 0.690E-03 0.102E-02 0.124E-02 0.133E-02 0.142E-02 0.152E-02 0.188E-02 0.192E-02


 Contracted 2-electron integrals neglected if value below      1.0D-11
 AO integral compression algorithm  1   Integral accuracy      1.0D-11

     577.503 MB (compressed) written to integral file ( 35.2%)


 NUMBER OF SORTED TWO-ELECTRON INTEGRALS:  210196756.     BUFFER LENGTH:  32768
 NUMBER OF SEGMENTS:  14  SEGMENT LENGTH:   15999503      RECORD LENGTH: 524288

 Memory used in sort:      16.56 MW

 SORT1 READ   205066374. AND WROTE   144701476. INTEGRALS IN    420 RECORDS. CPU TIME:     2.49 SEC, REAL TIME:     5.00 SEC
 SORT2 READ   144701476. AND WROTE   210196756. INTEGRALS IN   2203 RECORDS. CPU TIME:     3.14 SEC, REAL TIME:     4.57 SEC

 FILE SIZES:   FILE 1:   609.2 MBYTE,  FILE 4:  1761.7 MBYTE,   TOTAL:   2370.9 MBYTE

 OPERATOR DM      FOR CENTER  0  COORDINATES:    0.000000    0.000000    0.000000


 **********************************************************************************************************************************
 DATASETS  * FILE   NREC   LENGTH (MB)   RECORD NAMES
              1      19      519.72       500      610      700      900      950      970     1000      129      960     1100   
                                          VAR    BASINP    GEOM    SYMINP    ZMAT    AOBASIS   BASIS     P2S    ABASIS      S 
                                         1400     1410     1200     1210     1080     1600     1650     1300     1700   
                                           T        V       H0       H01     AOSYM     SMH    MOLCAS    ERIS     OPER   

 PROGRAMS   *        TOTAL       INT
 CPU TIMES  *        16.42     16.27
 REAL TIME  *        28.20 SEC
 DISK USED  *         2.21 GB
 **********************************************************************************************************************************


 Program * Restricted Hartree-Fock

 Orbital guess generated from atomic densities. Full valence occupancy:   23

 Initial occupancy:  13

 NELEC=   26   SYM=1   MS2= 0   THRE=1.0D-08   THRD=3.2D-06   THRG=3.2D-06  HFMA2=F  DIIS_START=2   DIIS_MAX=10   DIIS_INCORE=F

 Level shifts:    0.00 (CLOSED)    0.00 (OPEN)    0.30 (GAP_MIN)

 ITER           ETOT              DE          GRAD        DDIFF     DIIS  NEXP   TIME(IT)  TIME(TOT)  DIAG
   1     -118.23475884    -118.23475884     0.00D+00     0.50D-01     0     0       2.23      4.34    start
   2     -118.27187655      -0.03711770     0.34D-02     0.47D-02     1     0       2.25      6.59    diag
   3     -118.27620660      -0.00433005     0.13D-02     0.13D-02     2     0       2.17      8.76    diag
   4     -118.27679980      -0.00059320     0.34D-03     0.47D-03     3     0       2.16     10.92    diag
   5     -118.27680915      -0.00000935     0.41D-04     0.90D-04     4     0       2.17     13.09    diag
   6     -118.27680933      -0.00000018     0.52D-05     0.15D-04     5     0       2.16     15.25    diag
   7     -118.27680933      -0.00000001     0.10D-05     0.29D-05     6     0       2.15     17.40    diag
   8     -118.27680933      -0.00000000     0.24D-06     0.34D-06     0     0       2.18     19.58    fixocc

 Final occupancy:  13

 !RHF STATE 1.1 Energy               -118.276809334039
  RHF One-electron energy            -290.432942985688
  RHF Two-electron energy             105.051112622885
  RHF Kinetic energy                  118.126929520909
  RHF Nuclear energy                   67.105021028764
  RHF Virial quotient                  -1.001268803090

 !RHF STATE 1.1 Dipole moment           0.00794821    -0.02954753    -0.03381556
 Dipole moment /Debye                   0.02020233    -0.07510232    -0.08595059

 Orbital energies:

           1.1          2.1          3.1          4.1          5.1          6.1          7.1          8.1          9.1         10.1
    -11.229364   -11.227560   -11.200725    -1.036111    -0.938994    -0.792495    -0.642905    -0.590603    -0.541065    -0.540889

          11.1         12.1         13.1         14.1         15.1
     -0.540588    -0.504902    -0.379149     0.137445     0.152217


 HOMO     13.1    -0.379149 =     -10.3172eV
 LUMO     14.1     0.137445 =       3.7401eV
 LUMO-HOMO         0.516594 =      14.0572eV

 Orbitals saved in record  2100.2


 **********************************************************************************************************************************
 DATASETS  * FILE   NREC   LENGTH (MB)   RECORD NAMES
              1      19      519.72       500      610      700      900      950      970     1000      129      960     1100   
                                          VAR    BASINP    GEOM    SYMINP    ZMAT    AOBASIS   BASIS     P2S    ABASIS      S 
                                         1400     1410     1200     1210     1080     1600     1650     1300     1700   
                                           T        V       H0       H01     AOSYM     SMH    MOLCAS    ERIS     OPER   

              2       4        1.19       700     1000      520     2100   
                                         GEOM     BASIS   MCVARS     RHF  

 PROGRAMS   *        TOTAL    HF-SCF       INT
 CPU TIMES  *        36.02     19.60     16.27
 REAL TIME  *        53.43 SEC
 DISK USED  *         2.21 GB
 **********************************************************************************************************************************


 PROGRAM * PAPT (Closed-shell)     Authors: C. Hampel, H.-J. Werner, 1991, P.J. Knowles, 2021


 Convergence thresholds:  THRVAR = 1.00D-08  THRDEN = 1.00D-06

 Number of core orbitals:           3 (   3 )
 Number of closed-shell orbitals:  10 (  10 )
 Number of external orbitals:     189 ( 189 )

 Molecular orbitals read from record     2100.2  Type=RHF/CANONICAL  

 Number of N-1 electron functions:              10
 Number of N-2 electron functions:              55
 Number of singly external CSFs:              1890
 Number of doubly external CSFs:           1786995
 Total number of CSFs:                     1788886

 Length of J-op  integral file:               0.00 MB
 Length of K-op  integral file:               2.86 MB

 Integral transformation finished. Total CPU:   4.18 sec, npass=  1  Memory used:   4.64 MW

 Reference energy:                   -118.27680933

                        CORR.ENERGY   TOTAL ENERGY   ENERGY CHANGE
 MP2:                   -0.53493683  -118.81174617    -0.53493683

 SCS-MP2 correlation energy:           -0.54846623   (PS=  1.200000  PT=  0.333333)
 SCS-MP2 total energy:               -118.82527557
 Iteration:   1     0.2888D+00
 Iteration:   2     0.3477D+00
 Iteration:   3     0.1385D+00
 Iteration:   4     0.1344D+00
 Iteration:   5     0.2246D+00
 Iteration:   6     0.1470D+00
 Iteration:   7     0.2083D+01
 Iteration:   8     0.2895D+00
 Iteration:   9     0.2670D+01
 Iteration:  10     0.1244D+00
 Iteration:  11     0.1129D+00
 Iteration:  12     0.7328D-01
 Iteration:  13     0.2920D-01
 Iteration:  14     0.6842D-01
 Iteration:  15     0.1369D-01
 Iteration:  16     0.4624D-02
 Iteration:  17     0.8321D-02
 Iteration:  18     0.1703D-02
 Iteration:  19     0.5845D-03
 Iteration:  20     0.1016D-02
 Iteration:  21     0.2728D-03
 Iteration:  22     0.1738D-03
 Iteration:  23     0.2040D-03
 Iteration:  24     0.2417D-04
 PAPT operator written to  7000.1
 PAPT orbitals and eigenvalues written to  7000.2

 MP3(D):                -0.57537807  -118.85218741    -0.04044124



 RESULTS
 =======

  Reference energy                   -118.276809334038
  MP3 singlet pair energy              -0.417386908115
  MP3 triplet pair energy              -0.157991163578
  MP3 correlation energy               -0.575378071694

 !MP3 total energy                   -118.852187405732

 Timing summary (sec):

 STEP                 CPU(USER)    SYS     CPU(TOT)    WALL
 Transformation          4.35      0.22      4.57      6.54
 CCSD iterations        58.37      0.49     58.86     30.10

 Program statistics:

 Available memory in ccsd:               805305955
 Min. memory needed in ccsd:               4922928
 Max. memory used in ccsd:                 6481433
 Max. memory used in cckext:               4839736 ( 1 integral passes)



 **********************************************************************************************************************************
 DATASETS  * FILE   NREC   LENGTH (MB)   RECORD NAMES
              1      21      546.23       500      610      700      900      950      970     1000      129      960     1100   
                                          VAR    BASINP    GEOM    SYMINP    ZMAT    AOBASIS   BASIS     P2S    ABASIS      S 
                                         1400     1410     1200     1210     1080     1600     1650     1300     1700     1380   
                                           T        V       H0       H01     AOSYM     SMH    MOLCAS    ERIS     OPER     JKOP   
                                         7000   
                                        PAPT AO    

              2       5        2.23       700     1000      520     2100     7000   
                                         GEOM     BASIS   MCVARS     RHF     PAPT   

 PROGRAMS   *        TOTAL      PAPT    HF-SCF       INT
 CPU TIMES  *        62.36     26.35     19.60     16.27
 REAL TIME  *        90.30 SEC
 DISK USED  *         2.21 GB
 **********************************************************************************************************************************


 PROGRAM * MP2 (Closed-shell)     Authors: C. Hampel, H.-J. Werner, 1991, M. Deegan, P.J. Knowles, 1992


 Convergence thresholds:  THRVAR = 1.00D-08  THRDEN = 1.00D-06

 Number of core orbitals:           3 (   3 )
 Number of closed-shell orbitals:  10 (  10 )
 Number of external orbitals:     189 ( 189 )

 Molecular orbitals read from record     7000.2  Type=PAPT/CANONICAL (state 1.1)

 Number of N-1 electron functions:              10
 Number of N-2 electron functions:              55
 Number of singly external CSFs:              1890
 Number of doubly external CSFs:           1786995
 Total number of CSFs:                     1788886

 Length of J-op  integral file:               0.00 MB
 Length of K-op  integral file:               2.86 MB

 Integral transformation finished. Total CPU:   4.14 sec, npass=  1  Memory used:   4.64 MW
 Orbital energies read from record       7000.2  Type=PAPT/CANONICAL (state 1.1)

 Memory needed for MP2:                      0.20 MW

 SCS-MP2 correlation energy:           -0.601492466169   (PS=  1.200000  PT=  0.333333)
 SCS-MP2 total energy:               -118.878301800207


  Reference energy                   -118.276809334038
  MP2 singlet pair energy              -0.411986265189
  MP2 triplet pair energy              -0.172139380621
  MP2 correlation energy               -0.584125645811

 !MP2 total energy                   -118.860934979849


 **********************************************************************************************************************************
 DATASETS  * FILE   NREC   LENGTH (MB)   RECORD NAMES
              1      21      546.23       500      610      700      900      950      970     1000      129      960     1100   
                                          VAR    BASINP    GEOM    SYMINP    ZMAT    AOBASIS   BASIS     P2S    ABASIS      S 
                                         1400     1410     1200     1210     1080     1600     1650     1300     1700     1380   
                                           T        V       H0       H01     AOSYM     SMH    MOLCAS    ERIS     OPER     JKOP   
                                         7000   
                                        PAPT AO    

              2       5        2.23       700     1000      520     2100     7000   
                                         GEOM     BASIS   MCVARS     RHF     PAPT   

 PROGRAMS   *        TOTAL       MP2      PAPT    HF-SCF       INT
 CPU TIMES  *        68.92      6.56     26.35     19.60     16.27
 REAL TIME  *        98.48 SEC
 DISK USED  *         2.21 GB
 **********************************************************************************************************************************

 Dump information in style XML to xml output                                                                      

 Orbitals will not be exported.

 **********************************************************************************************************************************

 MP2/cc-pVTZ energy=   -118.860934979849

             MP2            PAPT          HF-SCF
   -118.86093498   -118.85218741   -118.27680933
 **********************************************************************************************************************************
 Molpro calculation terminated
