
 Working directory              : /home/jovyan/scratch/molpro.IhBaQ84ewZ/
 Global scratch directory       : /home/jovyan/scratch/molpro.IhBaQ84ewZ/
 Wavefunction directory         : /home/jovyan/wfu/
 Main file repository           : /home/jovyan/scratch/molpro.IhBaQ84ewZ/

 id        : cardiff

 Nodes                nprocs
 jupyter-c-2efrancisan    1
 GA implementation: MPI file
 GA implementation (serial work in mppx): MPI file

 Using customized tuning parameters: mindgm=1; mindgv=20; mindgc=4; mindgr=1; noblas=0; minvec=7
 default implementation of scratch files=df  


 Variables initialized (1031), CPU time= 0.00 sec
 
 
 
 geometry={
            3
     O         -1.09989026     -0.36122310      0.00000000
     H         -0.12964877     -0.31792312      0.00000000
     H         -1.38294827      0.56782190      0.00000000
 }
 basis=cc-pVDZ
 angstrom
 
 
 hf; ccsd(t)
 
 
 
 {put,xml;noorbitals,nobasis}
 Commands initialized (841), CPU time= 0.01 sec, 704 directives.
 Default parameters read. Elapsed time= 0.08 sec

 Checking input...
 Passed
1


                                         ***  PROGRAM SYSTEM MOLPRO  ***
                                       Copyright, TTI GmbH Stuttgart, 2015
                                    Version 2023.1 linked Mon Jun  5 13:27:10 2023


 **********************************************************************************************************************************
 LABEL *                                                                                                                                                                 
  (16 PROC) 64 bit serial version                                                        DATE: 03-Aug-23          TIME: 18:20:06  
 **********************************************************************************************************************************

 SHA1:             9738a14712571edd23541b6d7c4f3a3d766f8287
 **********************************************************************************************************************************

 Memory per process:       805 MW
 Total memory per node:   1074 MW
 Total GA space:           268 MW

 GA preallocation disabled
 GA check enabled

 Geometry recognized as XYZ


 Variable memory set to 805.3 MW

 SETTING BASIS          =    CC-PVDZ


 Recomputing integrals since basis changed


 Using spherical harmonics

 Library entry O      S cc-pVDZ              selected for orbital group  1
 Library entry O      P cc-pVDZ              selected for orbital group  1
 Library entry O      D cc-pVDZ              selected for orbital group  1
 Library entry H      S cc-pVDZ              selected for orbital group  2
 Library entry H      P cc-pVDZ              selected for orbital group  2


 PROGRAM * SEWARD (Integral evaluation for generally contracted gaussian basis sets)     Author: Roland Lindh, 1990

 Geometry written to block  1 of record 700


 Point group  Cs  



 ATOMIC COORDINATES

 NR  ATOM    CHARGE       X              Y              Z

   1  O       8.00   -2.078491359   -0.682612729    0.000000000
   2  H       1.00   -0.245000668   -0.600787625    0.000000000
   3  H       1.00   -2.613393475    1.073027879    0.000000000

 Bond lengths in Bohr (Angstrom)

 1-2  1.835315630  1-3  1.835318560
     ( 0.971207206)     ( 0.971208757)

 Bond angles

  2-1-3  104.38943409

 NUCLEAR CHARGE:                   10
 NUMBER OF PRIMITIVE AOS:          41
 NUMBER OF SYMMETRY AOS:           40
 NUMBER OF CONTRACTIONS:           24   (   18A'  +    6A"  )
 NUMBER OF INNER CORE ORBITALS:     0   (    0A'  +    0A"  )
 NUMBER OF OUTER CORE ORBITALS:     1   (    1A'  +    0A"  )
 NUMBER OF VALENCE ORBITALS:        6   (    5A'  +    1A"  )


 NUCLEAR REPULSION ENERGY    9.06264783

 Eigenvalues of metric

         1 0.179E-01 0.462E-01 0.525E-01 0.996E-01 0.162E+00 0.174E+00 0.223E+00 0.524E+00
         2 0.183E+00 0.535E+00 0.630E+00 0.110E+01 0.132E+01 0.223E+01


 Contracted 2-electron integrals neglected if value below      1.0D-11
 AO integral compression algorithm  1   Integral accuracy      1.0D-11

     0.262 MB (compressed) written to integral file (100.0%)


 NUMBER OF SORTED TWO-ELECTRON INTEGRALS:      25710.     BUFFER LENGTH:  32768
 NUMBER OF SEGMENTS:   1  SEGMENT LENGTH:      25710      RECORD LENGTH: 524288

 Memory used in sort:       0.58 MW

 SORT1 READ       31790. AND WROTE       23235. INTEGRALS IN      1 RECORDS. CPU TIME:     0.00 SEC, REAL TIME:     0.00 SEC
 SORT2 READ       23235. AND WROTE       25710. INTEGRALS IN      1 RECORDS. CPU TIME:     0.01 SEC, REAL TIME:     0.00 SEC

 FILE SIZES:   FILE 1:    30.3 MBYTE,  FILE 4:     4.3 MBYTE,   TOTAL:     34.5 MBYTE

 OPERATOR DM      FOR CENTER  0  COORDINATES:    0.000000    0.000000    0.000000


 **********************************************************************************************************************************
 DATASETS  * FILE   NREC   LENGTH (MB)   RECORD NAMES
              1      19       28.77       500      610      700      900      950      970     1000      129      960     1100   
                                          VAR    BASINP    GEOM    SYMINP    ZMAT    AOBASIS   BASIS     P2S    ABASIS      S 
                                         1400     1410     1200     1210     1080     1600     1650     1300     1700   
                                           T        V       H0       H01     AOSYM     SMH    MOLCAS    ERIS     OPER   

 PROGRAMS   *        TOTAL       INT
 CPU TIMES  *         0.52      0.38
 REAL TIME  *         1.72 SEC
 DISK USED  *        33.29 MB
 **********************************************************************************************************************************


 Program * Restricted Hartree-Fock

 Orbital guess generated from atomic densities. Full valence occupancy:    6   1

 Initial occupancy:   4   1

 NELEC=   10   SYM=1   MS2= 0   THRE=1.0D-08   THRD=3.2D-06   THRG=3.2D-06  HFMA2=F  DIIS_START=2   DIIS_MAX=10   DIIS_INCORE=F

 Level shifts:    0.00 (CLOSED)    0.00 (OPEN)    0.30 (GAP_MIN)

 ITER           ETOT              DE          GRAD        DDIFF     DIIS  NEXP   TIME(IT)  TIME(TOT)  DIAG
   1      -75.98705688     -75.98705688     0.00D+00     0.30D+00     0     0       0.00      0.00    start
   2      -76.01681230      -0.02975543     0.27D-01     0.57D-01     1     0       0.00      0.00    diag
   3      -76.02552034      -0.00870803     0.15D-01     0.19D-01     2     0       0.00      0.00    diag
   4      -76.02574715      -0.00022682     0.16D-02     0.35D-02     3     0       0.01      0.01    diag
   5      -76.02576621      -0.00001906     0.45D-03     0.11D-02     4     0       0.00      0.01    diag
   6      -76.02576682      -0.00000061     0.71D-04     0.18D-03     5     0       0.00      0.01    diag
   7      -76.02576684      -0.00000001     0.10D-04     0.32D-04     6     0       0.00      0.01    diag
   8      -76.02576684      -0.00000000     0.84D-06     0.23D-05     7     0       0.00      0.01    fixocc
   9      -76.02576684      -0.00000000     0.11D-06     0.19D-06     0     0       0.00      0.01    diag

 Final occupancy:   4   1

 !RHF STATE 1.1 Energy                -76.025766836848
  RHF One-electron energy            -122.915071369595
  RHF Two-electron energy              37.826656700234
  RHF Kinetic energy                   75.936329642203
  RHF Nuclear energy                    9.062647832513
  RHF Virial quotient                  -1.001177791909

 !RHF STATE 1.1 Dipole moment           0.47034616     0.66552566     0.00000000
 Dipole moment /Debye                   1.19550068     1.69159750     0.00000000

 Orbital energies:

           1.1          2.1          3.1          4.1          5.1          6.1
    -20.552944    -1.329815    -0.691658    -0.564243     0.183160     0.254168

           1.2          2.2          3.2
     -0.492218     1.200074     1.473109


 HOMO      1.2    -0.492218 =     -13.3939eV
 LUMO      5.1     0.183160 =       4.9840eV
 LUMO-HOMO         0.675378 =      18.3780eV

 Orbitals saved in record  2100.2


 **********************************************************************************************************************************
 DATASETS  * FILE   NREC   LENGTH (MB)   RECORD NAMES
              1      19       28.77       500      610      700      900      950      970     1000      129      960     1100   
                                          VAR    BASINP    GEOM    SYMINP    ZMAT    AOBASIS   BASIS     P2S    ABASIS      S 
                                         1400     1410     1200     1210     1080     1600     1650     1300     1700   
                                           T        V       H0       H01     AOSYM     SMH    MOLCAS    ERIS     OPER   

              2       4        0.41       700     1000      520     2100   
                                         GEOM     BASIS   MCVARS     RHF  

 PROGRAMS   *        TOTAL    HF-SCF       INT
 CPU TIMES  *         0.53      0.01      0.38
 REAL TIME  *         1.74 SEC
 DISK USED  *        33.29 MB
 **********************************************************************************************************************************


 PROGRAM * CCSD (Closed-shell coupled cluster)     Authors: C. Hampel, H.-J. Werner, 1991, M. Deegan, P.J. Knowles, 1992


 Convergence thresholds:  THRVAR = 1.00D-08  THRDEN = 1.00D-06

 CCSD(T)     terms to be evaluated (factor= 1.000)


 Number of core orbitals:           1 (   1   0 )
 Number of closed-shell orbitals:   4 (   3   1 )
 Number of external orbitals:      19 (  14   5 )

 Molecular orbitals read from record     2100.2  Type=RHF/CANONICAL  

 Number of N-1 electron functions:               4
 Number of N-2 electron functions:              10
 Number of singly external CSFs:                47
 Number of doubly external CSFs:              1563
 Total number of CSFs:                        1611

 Length of J-op  integral file:               0.00 MB
 Length of K-op  integral file:               0.09 MB
 Length of 3-ext integral record:             0.00 MB

 Memory could be reduced to 0.08 Mwords without degradation in triples

 Integral transformation finished. Total CPU:   0.00 sec, npass=  1  Memory used:   0.09 MW

 Reference energy:                    -76.02576684

 MP2 singlet pair energy:              -0.12631859
 MP2 triplet pair energy:              -0.07631284
 MP2 correlation energy:               -0.20263142
 MP2 total energy:                    -76.22839826

 SCS-MP2 correlation energy:           -0.19906585   (PS=  1.200000  PT=  0.333333)
 SCS-MP2 total energy:                -76.22483268

 ITER.      SQ.NORM     CORR.ENERGY   TOTAL ENERGY   ENERGY CHANGE        DEN1      VAR(S)    VAR(P)  DIIS     TIME  TIME/IT
   1      1.05355715    -0.21116204   -76.23692888    -0.00853062    -0.00486696  0.29D-03  0.70D-03  1  1     0.83     0.01
   2      1.05684130    -0.21212605   -76.23789288    -0.00096400    -0.00396672  0.56D-05  0.61D-04  2  2     0.84     0.00
   3      1.05767773    -0.21220484   -76.23797168    -0.00007879    -0.00062216  0.22D-05  0.25D-05  3  3     0.84     0.00
   4      1.05786966    -0.21220815   -76.23797499    -0.00000331    -0.00010257  0.15D-06  0.15D-06  4  4     0.84     0.00
   5      1.05790686    -0.21220663   -76.23797346     0.00000152    -0.00001665  0.40D-07  0.87D-08  5  5     0.85     0.00
   6      1.05791242    -0.21220656   -76.23797340     0.00000006     0.00000036  0.48D-08  0.95D-09  6  6     0.85     0.00
   7      1.05791546    -0.21220650   -76.23797334     0.00000006    -0.00000030  0.17D-09  0.80D-10  6  1     0.85     0.00

 Norm of t1 vector:      0.02442797      S-energy:    -0.00000010      T1 diagnostic:  0.00610699
                                                                       D1 diagnostic:  0.01168747
                                                                       D2 diagnostic:  0.12498150 (internal)

 Doubles amplitudes (print threshold =  0.500E-01):

         I         J         SYM. A    SYM. B    A         B      T(IJ, AB)

         4         4         2         2         1         1     -0.05146061


 Total CPU time for triples:      0.01 sec


 RESULTS
 =======

  Reference energy                    -76.025766836849
  CCSD singlet pair energy             -0.144245929770
  CCSD triplet pair energy             -0.067960470789
  CCSD correlation energy              -0.212206498479

  Triples (T) contribution             -0.003100677364
  Total correlation energy             -0.215307175842

  CCSD total energy                   -76.237973335327
  CCSD[T] energy                      -76.241162866958
  CCSD-T energy                       -76.241017188207
 !CCSD(T) total energy                -76.241074012691

 Timing summary (sec):

 STEP                 CPU(USER)    SYS     CPU(TOT)    WALL
 CCSD iterations         0.85      0.00      0.85      0.04
 Triples                 0.01      0.00      0.01      0.01

 Program statistics:

 Available memory in ccsd:               805306300
 Min. memory needed in ccsd:                  9863
 Max. memory used in ccsd:                   10581
 Max. memory used in cckext:                 43622 ( 7 integral passes)



 **********************************************************************************************************************************
 DATASETS  * FILE   NREC   LENGTH (MB)   RECORD NAMES
              1      20       28.87       500      610      700      900      950      970     1000      129      960     1100   
                                          VAR    BASINP    GEOM    SYMINP    ZMAT    AOBASIS   BASIS     P2S    ABASIS      S 
                                         1400     1410     1200     1210     1080     1600     1650     1300     1700     1380   
                                           T        V       H0       H01     AOSYM     SMH    MOLCAS    ERIS     OPER     JKOP   

              2       4        0.41       700     1000      520     2100   
                                         GEOM     BASIS   MCVARS     RHF  

 PROGRAMS   *        TOTAL   CCSD(T)    HF-SCF       INT
 CPU TIMES  *         0.61      0.08      0.01      0.38
 REAL TIME  *         1.96 SEC
 DISK USED  *        33.29 MB
 **********************************************************************************************************************************

 Dump information in style XML to xml output                                                                      

 Orbitals will not be exported.

 **********************************************************************************************************************************

 CCSD(T)/cc-pVDZ energy=    -76.241074012691

         CCSD(T)          HF-SCF
    -76.24107401    -76.02576684
 **********************************************************************************************************************************
 Molpro calculation terminated
