
 Working directory              : /home/jovyan/scratch/molpro.fO5RIhsGWc/
 Global scratch directory       : /home/jovyan/scratch/molpro.fO5RIhsGWc/
 Wavefunction directory         : /home/jovyan/wfu/
 Main file repository           : /home/jovyan/scratch/molpro.fO5RIhsGWc/

 id        : cardiff

 Nodes                nprocs
 jupyter-c-2efrancisan    1
 GA implementation: MPI file
 GA implementation (serial work in mppx): MPI file

 Using customized tuning parameters: mindgm=1; mindgv=20; mindgc=4; mindgr=1; noblas=0; minvec=7
 default implementation of scratch files=df  


 Variables initialized (1031), CPU time= 0.00 sec
 
 
 
 geometry={
           12
     C          1.27609040     -0.77327344      0.00000000
     C          1.23134723      0.58905339      0.00000000
     C         -1.18192378      1.07324973      0.00000000
     N         -1.49435191     -0.19905547      0.00000000
     C         -1.06638519     -1.33840171      0.00000000
     H          1.42015815     -1.33084885     -0.91708935
     H          1.42015815     -1.33084885      0.91708935
     H          1.34536200      1.15022023     -0.91956788
     H          1.34536200      1.15022023      0.91956788
     H         -1.30031450      1.61932430      0.92900354
     H         -1.30031450      1.61932430     -0.92900354
     H         -1.69518802     -2.22896383      0.00000000
 }
 basis=cc-pVDZ
 angstrom
 
 
 hf; papt;mp4
 
 
 
 {put,xml;noorbitals,nobasis}
 Commands initialized (841), CPU time= 0.01 sec, 704 directives.
 Default parameters read. Elapsed time= 0.09 sec

 Checking input...
 Passed
1


                                         ***  PROGRAM SYSTEM MOLPRO  ***
                                       Copyright, TTI GmbH Stuttgart, 2015
                                    Version 2023.1 linked Mon Jun  5 13:27:10 2023


 **********************************************************************************************************************************
 LABEL *                                                                                                                                                                 
  (16 PROC) 64 bit serial version                                                        DATE: 03-Aug-23          TIME: 11:02:42  
 **********************************************************************************************************************************

 SHA1:             9738a14712571edd23541b6d7c4f3a3d766f8287
 **********************************************************************************************************************************

 Memory per process:       805 MW
 Total memory per node:   1074 MW
 Total GA space:           268 MW

 GA preallocation disabled
 GA check enabled

 Geometry recognized as XYZ


 Variable memory set to 805.3 MW

 SETTING BASIS          =    CC-PVDZ


 Recomputing integrals since basis changed


 Using spherical harmonics

 Library entry C      S cc-pVDZ              selected for orbital group  1
 Library entry C      P cc-pVDZ              selected for orbital group  1
 Library entry C      D cc-pVDZ              selected for orbital group  1
 Library entry N      S cc-pVDZ              selected for orbital group  2
 Library entry N      P cc-pVDZ              selected for orbital group  2
 Library entry N      D cc-pVDZ              selected for orbital group  2
 Library entry H      S cc-pVDZ              selected for orbital group  4
 Library entry H      P cc-pVDZ              selected for orbital group  4


 PROGRAM * SEWARD (Integral evaluation for generally contracted gaussian basis sets)     Author: Roland Lindh, 1990

 Geometry written to block  1 of record 700


 Point group  Cs  



 ATOMIC COORDINATES

 NR  ATOM    CHARGE       X              Y              Z

   1  C       6.00    2.411461366   -1.461275021    0.000000000
   2  C       6.00    2.326909029    1.113149580    0.000000000
   3  C       6.00   -2.233512244    2.028148053    0.000000000
   4  N       7.00   -2.823915844   -0.376160322    0.000000000
   5  C       6.00   -2.015175952   -2.529212677    0.000000000
   6  H       1.00    2.683709957   -2.514939840   -1.733047703
   7  H       1.00    2.683709957   -2.514939840    1.733047703
   8  H       1.00    2.542365718    2.173601218   -1.737731446
   9  H       1.00    2.542365718    2.173601218    1.737731446
  10  H       1.00   -2.457238281    3.060079434    1.755562259
  11  H       1.00   -2.457238281    3.060079434   -1.755562259
  12  H       1.00   -3.203441088   -4.212131180    0.000000000

 Bond lengths in Bohr (Angstrom)

 1-2  2.575812711  1-6  2.046407385  1-7  2.046407385  2-8  2.047117447  2-9  2.047117447
     ( 1.363061386)     ( 1.082912153)     ( 1.082912153)     ( 1.083287901)     ( 1.083287901)

  3- 4  2.475737299   3-10  2.048642126   3-11  2.048642126   4- 5  2.299933619   5-12  2.060142889
       ( 1.310103759)       ( 1.084094726)       ( 1.084094726)       ( 1.217072458)       ( 1.090180668)

 Bond angles

  1-2-8  120.94986755   1-2-9  120.94986755   2-1-6  121.26350260   2-1-7  121.26350260

  3- 4- 5  145.61597334   4- 3-10  117.58982266   4- 3-11  117.58982266   4- 5-12  124.18765139

  6- 1- 7  115.74639928   8- 2- 9  116.17740812  10- 3-11  117.94932410

 NUCLEAR CHARGE:                   38
 NUMBER OF PRIMITIVE AOS:         184
 NUMBER OF SYMMETRY AOS:          179
 NUMBER OF CONTRACTIONS:          105   (   69A'  +   36A"  )
 NUMBER OF INNER CORE ORBITALS:     0   (    0A'  +    0A"  )
 NUMBER OF OUTER CORE ORBITALS:     5   (    5A'  +    0A"  )
 NUMBER OF VALENCE ORBITALS:       27   (   19A'  +    8A"  )


 NUCLEAR REPULSION ENERGY  157.98626806


 Eigenvalues of metric

         1 0.276E-02 0.568E-02 0.768E-02 0.136E-01 0.160E-01 0.212E-01 0.278E-01 0.319E-01
         2 0.150E-01 0.270E-01 0.311E-01 0.361E-01 0.396E-01 0.632E-01 0.102E+00 0.103E+00


 Contracted 2-electron integrals neglected if value below      1.0D-11
 AO integral compression algorithm  1   Integral accuracy      1.0D-11

     36.176 MB (compressed) written to integral file ( 51.0%)


 NUMBER OF SORTED TWO-ELECTRON INTEGRALS:    7964601.     BUFFER LENGTH:  32768
 NUMBER OF SEGMENTS:   1  SEGMENT LENGTH:    7964601      RECORD LENGTH: 524288

 Memory used in sort:       8.52 MW

 SORT1 READ     8842738. AND WROTE     7793009. INTEGRALS IN     23 RECORDS. CPU TIME:     0.13 SEC, REAL TIME:     0.22 SEC
 SORT2 READ     7793009. AND WROTE     7964601. INTEGRALS IN    138 RECORDS. CPU TIME:     0.22 SEC, REAL TIME:     0.26 SEC

 FILE SIZES:   FILE 1:    66.7 MBYTE,  FILE 4:    96.5 MBYTE,   TOTAL:    163.2 MBYTE

 OPERATOR DM      FOR CENTER  0  COORDINATES:    0.000000    0.000000    0.000000


 **********************************************************************************************************************************
 DATASETS  * FILE   NREC   LENGTH (MB)   RECORD NAMES
              1      19       59.91       500      610      700      900      950      970     1000      129      960     1100   
                                          VAR    BASINP    GEOM    SYMINP    ZMAT    AOBASIS   BASIS     P2S    ABASIS      S 
                                         1400     1410     1200     1210     1080     1600     1650     1300     1700   
                                           T        V       H0       H01     AOSYM     SMH    MOLCAS    ERIS     OPER   

 PROGRAMS   *        TOTAL       INT
 CPU TIMES  *         2.74      2.58
 REAL TIME  *         4.00 SEC
 DISK USED  *       156.17 MB
 **********************************************************************************************************************************


 Program * Restricted Hartree-Fock

 Orbital guess generated from atomic densities. Full valence occupancy:   24   8

 Initial occupancy:  15   4

 NELEC=   38   SYM=1   MS2= 0   THRE=1.0D-08   THRD=3.2D-06   THRG=3.2D-06  HFMA2=F  DIIS_START=2   DIIS_MAX=10   DIIS_INCORE=F

 Level shifts:    0.00 (CLOSED)    0.00 (OPEN)    0.30 (GAP_MIN)

 ITER           ETOT              DE          GRAD        DDIFF     DIIS  NEXP   TIME(IT)  TIME(TOT)  DIAG
   1     -209.75877715    -209.75877715     0.00D+00     0.14D+00     0     0       0.06      0.13    start
   2     -209.81488999      -0.05611284     0.66D-02     0.16D-01     1     0       0.06      0.19    diag
   3     -209.82893321      -0.01404322     0.36D-02     0.63D-02     2     0       0.06      0.25    diag
   4     -209.83148056      -0.00254734     0.95D-03     0.25D-02     3     0       0.07      0.32    diag
   5     -209.83196637      -0.00048582     0.44D-03     0.86D-03     4     0       0.06      0.38    diag
   6     -209.83236396      -0.00039758     0.24D-03     0.11D-02     5     0       0.07      0.45    diag
   7     -209.83243490      -0.00007094     0.11D-03     0.52D-03     6     0       0.06      0.51    diag
   8     -209.83244740      -0.00001251     0.61D-04     0.26D-03     7     0       0.06      0.57    fixocc
   9     -209.83244769      -0.00000028     0.12D-04     0.32D-04     8     0       0.07      0.64    diag
  10     -209.83244771      -0.00000002     0.30D-05     0.88D-05     9     0       0.06      0.70    diag/orth
  11     -209.83244771      -0.00000000     0.10D-05     0.29D-05     9     0       0.06      0.76    diag
  12     -209.83244771      -0.00000000     0.38D-06     0.91D-06     0     0       0.07      0.83    diag

 Final occupancy:  15   4

 !RHF STATE 1.1 Energy               -209.832447711623
  RHF One-electron energy            -595.596977563813
  RHF Two-electron energy             227.778261789032
  RHF Kinetic energy                  209.499178196471
  RHF Nuclear energy                  157.986268063159
  RHF Virial quotient                  -1.001590791515

 !RHF STATE 1.1 Dipole moment          -0.54333848     0.08977915     0.00000000
 Dipole moment /Debye                  -1.38102867     0.22819584     0.00000000

 Orbital energies:

           1.1          2.1          3.1          4.1          5.1          6.1          7.1          8.1          9.1         10.1
    -15.618400   -11.289309   -11.278037   -11.223331   -11.206478    -1.277151    -1.004009    -0.996722    -0.774073    -0.751424

          11.1         12.1         13.1         14.1         15.1         16.1         17.1
     -0.661243    -0.572291    -0.555608    -0.325263    -0.295906     0.128120     0.189761

           1.2          2.2          3.2          4.2          5.2          6.2
     -0.647696    -0.608647    -0.485470    -0.449188     0.157604     0.248994


 HOMO     15.1    -0.295906 =      -8.0520eV
 LUMO     16.1     0.128120 =       3.4863eV
 LUMO-HOMO         0.424027 =      11.5384eV

 Orbitals saved in record  2100.2


 **********************************************************************************************************************************
 DATASETS  * FILE   NREC   LENGTH (MB)   RECORD NAMES
              1      19       59.91       500      610      700      900      950      970     1000      129      960     1100   
                                          VAR    BASINP    GEOM    SYMINP    ZMAT    AOBASIS   BASIS     P2S    ABASIS      S 
                                         1400     1410     1200     1210     1080     1600     1650     1300     1700   
                                           T        V       H0       H01     AOSYM     SMH    MOLCAS    ERIS     OPER   

              2       4        0.67       700     1000      520     2100   
                                         GEOM     BASIS   MCVARS     RHF  

 PROGRAMS   *        TOTAL    HF-SCF       INT
 CPU TIMES  *         3.57      0.83      2.58
 REAL TIME  *         4.94 SEC
 DISK USED  *       156.17 MB
 **********************************************************************************************************************************


 PROGRAM * PAPT (Closed-shell)     Authors: C. Hampel, H.-J. Werner, 1991, P.J. Knowles, 2021


 Convergence thresholds:  THRVAR = 1.00D-08  THRDEN = 1.00D-06

 Number of core orbitals:           5 (   5   0 )
 Number of closed-shell orbitals:  14 (  10   4 )
 Number of external orbitals:      86 (  54  32 )

 Molecular orbitals read from record     2100.2  Type=RHF/CANONICAL  

 Number of N-1 electron functions:              14
 Number of N-2 electron functions:             105
 Number of singly external CSFs:               668
 Number of doubly external CSFs:            367362
 Total number of CSFs:                      368031

 Length of J-op  integral file:               0.00 MB
 Length of K-op  integral file:               0.48 MB

 Integral transformation finished. Total CPU:   0.16 sec, npass=  1  Memory used:   0.69 MW

 Reference energy:                   -209.83244771

                        CORR.ENERGY   TOTAL ENERGY   ENERGY CHANGE
 MP2:                   -0.74180364  -210.57425135    -0.74180364

 SCS-MP2 correlation energy:           -0.72914140   (PS=  1.200000  PT=  0.333333)
 SCS-MP2 total energy:               -210.56158911
 Iteration:   1     0.3168D+00
 Iteration:   2     0.1967D+01
 Iteration:   3     0.1027D+00
 Iteration:   4     0.1367D+00
 Iteration:   5     0.3871D-01
 Iteration:   6     0.3539D-01
 Iteration:   7     0.2676D-01
 Iteration:   8     0.1103D-01
 Iteration:   9     0.5382D-01
 Iteration:  10     0.5311D-02
 Iteration:  11     0.8637D-01
 Iteration:  12     0.2227D-02
 Iteration:  13     0.5151D-02
 Iteration:  14     0.9644D-03
 Iteration:  15     0.8396D-03
 Iteration:  16     0.2009D-02
 Iteration:  17     0.4177D-03
 Iteration:  18     0.6117D-03
 Iteration:  19     0.2194D-03
 Iteration:  20     0.1675D-03
 Iteration:  21     0.1626D-03
 Iteration:  22     0.2966D-04
 PAPT operator written to  7000.1
 PAPT orbitals and eigenvalues written to  7000.2

 MP3(D):                -0.77020787  -210.60265559    -0.02840423



 RESULTS
 =======

  Reference energy                   -209.832447711623
  MP3 singlet pair energy              -0.516915409190
  MP3 triplet pair energy              -0.253292464944
  MP3 correlation energy               -0.770207874134

 !MP3 total energy                   -210.602655585757

 Timing summary (sec):

 STEP                 CPU(USER)    SYS     CPU(TOT)    WALL
 Transformation          0.18      0.03      0.21      0.31
 CCSD iterations         5.96      0.05      6.01      2.23

 Program statistics:

 Available memory in ccsd:               805305569
 Min. memory needed in ccsd:               1012507
 Max. memory used in ccsd:                 1327073
 Max. memory used in cckext:               1429838 ( 1 integral passes)



 **********************************************************************************************************************************
 DATASETS  * FILE   NREC   LENGTH (MB)   RECORD NAMES
              1      21       66.84       500      610      700      900      950      970     1000      129      960     1100   
                                          VAR    BASINP    GEOM    SYMINP    ZMAT    AOBASIS   BASIS     P2S    ABASIS      S 
                                         1400     1410     1200     1210     1080     1600     1650     1300     1700     1380   
                                           T        V       H0       H01     AOSYM     SMH    MOLCAS    ERIS     OPER     JKOP   
                                         7000   
                                        PAPT AO    

              2       5        0.90       700     1000      520     2100     7000   
                                         GEOM     BASIS   MCVARS     RHF     PAPT   

 PROGRAMS   *        TOTAL      PAPT    HF-SCF       INT
 CPU TIMES  *         5.91      2.34      0.83      2.58
 REAL TIME  *         7.52 SEC
 DISK USED  *       156.17 MB
 **********************************************************************************************************************************


 PROGRAM * MP4 (Closed-shell)     Authors: C. Hampel, H.-J. Werner, 1991, M. Deegan, P.J. Knowles, 1992


 Convergence thresholds:  THRVAR = 1.00D-08  THRDEN = 1.00D-06

 MP4(T)     terms to be evaluated (factor= 0.000)


 Number of core orbitals:           5 (   5   0 )
 Number of closed-shell orbitals:  14 (  10   4 )
 Number of external orbitals:      86 (  54  32 )

 Molecular orbitals read from record     7000.2  Type=PAPT/CANONICAL (state 1.1)

 Number of N-1 electron functions:              14
 Number of N-2 electron functions:             105
 Number of singly external CSFs:               668
 Number of doubly external CSFs:            367362
 Total number of CSFs:                      368031

 Length of J-op  integral file:               0.00 MB
 Length of K-op  integral file:               0.48 MB

 Memory could be reduced to 6.20 Mwords without degradation in triples

 Integral transformation finished. Total CPU:   0.42 sec, npass=  1  Memory used:   3.15 MW
 Orbital energies read from record       7000.2  Type=PAPT/CANONICAL (state 1.1)

 Reference energy:                   -209.83244771

                        CORR.ENERGY   TOTAL ENERGY   ENERGY CHANGE
 MP2:                   -0.77980405  -210.61225177    -0.77980405

 SCS-MP2 correlation energy:           -0.77242836   (PS=  1.200000  PT=  0.333333)
 SCS-MP2 total energy:               -210.60487607

 MP3(D):                -0.78020026  -210.61264797    -0.00039621
 MP4(DQ):               -0.77215192  -210.60459963     0.00804834
 MP4(SDQ):              -0.78063976  -210.61308747    -0.00848784

 Norm of t1 vector:      0.09487035      S-energy:    -0.00848784      T1 diagnostic:  0.01267758

 Largest off-diagonal element in interal  block of Fock matrix:  0.12D+00
 Largest off-diagonal element in external block of Fock matrix:  0.15D+00


 Total CPU time for triples:      7.51 sec


 RESULTS
 =======

  Reference energy                   -209.832447711623
  MP4(SDQ) singlet pair energy         -0.518568444334
  MP4(SDQ) triplet pair energy         -0.253583473003
  MP4(SDQ) correlation energy          -0.780639761990

  Triples contribution                 -0.039318624829
  Total correlation energy             -0.819958386819

  MP4(SDQ) total energy              -210.613087473614
 !MP4(SDTQ) total energy             -210.652406098443

 Timing summary (sec):

 STEP                 CPU(USER)    SYS     CPU(TOT)    WALL
 Transformation          0.50      0.06      0.56      0.82
 CCSD iterations         7.49      0.04      7.53      1.35
 Triples                 7.51      0.49      8.00      8.08

 Program statistics:

 Available memory in ccsd:               805305569
 Min. memory needed in ccsd:               1012507
 Max. memory used in ccsd:                 1327073
 Max. memory used in cckext:               1429838 ( 1 integral passes)



 **********************************************************************************************************************************
 DATASETS  * FILE   NREC   LENGTH (MB)   RECORD NAMES
              1      22       84.17       500      610      700      900      950      970     1000      129      960     1100   
                                          VAR    BASINP    GEOM    SYMINP    ZMAT    AOBASIS   BASIS     P2S    ABASIS      S 
                                         1400     1410     1200     1210     1080     1600     1650     1300     1700     1380   
                                           T        V       H0       H01     AOSYM     SMH    MOLCAS    ERIS     OPER     JKOP   
                                         7000     1380(1)
                                        PAPT AO   JKOP   

              2       5        0.90       700     1000      520     2100     7000   
                                         GEOM     BASIS   MCVARS     RHF     PAPT   

 PROGRAMS   *        TOTAL       MP4      PAPT    HF-SCF       INT
 CPU TIMES  *        15.27      9.36      2.34      0.83      2.58
 REAL TIME  *        17.81 SEC
 DISK USED  *       156.17 MB
 **********************************************************************************************************************************

 Dump information in style XML to xml output                                                                      

 Orbitals will not be exported.

 **********************************************************************************************************************************

 MP4/cc-pVDZ energy=   -210.652406098443

             MP4            PAPT          HF-SCF
   -210.65240610   -210.60265559   -209.83244771
 **********************************************************************************************************************************
 Molpro calculation terminated
