
 Working directory              : /home/jovyan/scratch/molpro.MdcJ5KWtMD/
 Global scratch directory       : /home/jovyan/scratch/molpro.MdcJ5KWtMD/
 Wavefunction directory         : /home/jovyan/wfu/
 Main file repository           : /home/jovyan/scratch/molpro.MdcJ5KWtMD/

 id        : cardiff

 Nodes                nprocs
 jupyter-c-2efrancisan    1
 GA implementation: MPI file
 GA implementation (serial work in mppx): MPI file

 Using customized tuning parameters: mindgm=1; mindgv=20; mindgc=4; mindgr=1; noblas=0; minvec=7
 default implementation of scratch files=df  


 Variables initialized (1031), CPU time= 0.00 sec
 
 
 
 geometry={
 6
  2H2O (Full point group Cs)
  O 0.000756 1.523252 0.000000
  H -0.086365 0.557493 0.000000
  H -0.898788 1.860643 0.000000
  O 0.000756 -1.396126 0.000000
  H 0.486527 -1.717573 0.766199
  H 0.486527 -1.717573 -0.766199
 }
 basis=cc-pVTZ
 angstrom
 
 
 hf; mp3
 
 
 
 {put,xml;noorbitals,nobasis}
 Commands initialized (841), CPU time= 0.01 sec, 704 directives.
 Default parameters read. Elapsed time= 0.08 sec

 Checking input...
 Passed
1


                                         ***  PROGRAM SYSTEM MOLPRO  ***
                                       Copyright, TTI GmbH Stuttgart, 2015
                                    Version 2023.1 linked Mon Jun  5 13:27:10 2023


 **********************************************************************************************************************************
 LABEL *                                                                                                                                                                 
  (16 PROC) 64 bit serial version                                                        DATE: 03-Aug-23          TIME: 12:41:26  
 **********************************************************************************************************************************

 SHA1:             9738a14712571edd23541b6d7c4f3a3d766f8287
 **********************************************************************************************************************************

 Memory per process:       805 MW
 Total memory per node:   1074 MW
 Total GA space:           268 MW

 GA preallocation disabled
 GA check enabled

 Geometry recognized as XYZ


 Variable memory set to 805.3 MW

 SETTING BASIS          =    CC-PVTZ


 Recomputing integrals since basis changed


 Using spherical harmonics

 Library entry O      S cc-pVTZ              selected for orbital group  1
 Library entry O      P cc-pVTZ              selected for orbital group  1
 Library entry O      D cc-pVTZ              selected for orbital group  1
 Library entry O      F cc-pVTZ              selected for orbital group  1
 Library entry H      S cc-pVTZ              selected for orbital group  2
 Library entry H      P cc-pVTZ              selected for orbital group  2
 Library entry H      D cc-pVTZ              selected for orbital group  2


 PROGRAM * SEWARD (Integral evaluation for generally contracted gaussian basis sets)     Author: Roland Lindh, 1990

 Geometry written to block  1 of record 700


 Point group  Cs  



 ATOMIC COORDINATES

 NR  ATOM    CHARGE       X              Y              Z

   1  O       8.00    0.001428633    2.878529099    0.000000000
   2  H       1.00   -0.163206197    1.053509086    0.000000000
   3  H       1.00   -1.698463164    3.516105686    0.000000000
   4  O       8.00    0.001428633   -2.638295775    0.000000000
   5  H       1.00    0.919402782   -3.245742569    1.447906267
   6  H       1.00    0.919402782   -3.245742569   -1.447906267

 Bond lengths in Bohr (Angstrom)

 1-2  1.832430810  1-3  1.815526377  4-5  1.818818491  4-6  1.818818491
     ( 0.969680625)     ( 0.960735185)     ( 0.962477296)     ( 0.962477296)

 Bond angles

  2-1-3  105.40481457   5-4-6  105.51281466

 NUCLEAR CHARGE:                   20
 NUMBER OF PRIMITIVE AOS:         162
 NUMBER OF SYMMETRY AOS:          148
 NUMBER OF CONTRACTIONS:          116   (   74A'  +   42A"  )
 NUMBER OF INNER CORE ORBITALS:     0   (    0A'  +    0A"  )
 NUMBER OF OUTER CORE ORBITALS:     2   (    2A'  +    0A"  )
 NUMBER OF VALENCE ORBITALS:       12   (    9A'  +    3A"  )


 NUCLEAR REPULSION ENERGY   36.49286655


 Eigenvalues of metric

         1 0.208E-02 0.252E-02 0.460E-02 0.533E-02 0.580E-02 0.786E-02 0.105E-01 0.110E-01
         2 0.448E-02 0.778E-02 0.404E-01 0.466E-01 0.698E-01 0.844E-01 0.110E+00 0.116E+00


 Contracted 2-electron integrals neglected if value below      1.0D-11
 AO integral compression algorithm  1   Integral accuracy      1.0D-11

     43.516 MB (compressed) written to integral file ( 38.8%)


 NUMBER OF SORTED TWO-ELECTRON INTEGRALS:   11777331.     BUFFER LENGTH:  32768
 NUMBER OF SEGMENTS:   1  SEGMENT LENGTH:   11777331      RECORD LENGTH: 524288

 Memory used in sort:      12.33 MW

 SORT1 READ    14013334. AND WROTE     9334586. INTEGRALS IN     27 RECORDS. CPU TIME:     0.16 SEC, REAL TIME:     0.30 SEC
 SORT2 READ     9334586. AND WROTE    11777331. INTEGRALS IN    166 RECORDS. CPU TIME:     0.32 SEC, REAL TIME:     0.35 SEC

 FILE SIZES:   FILE 1:    74.0 MBYTE,  FILE 4:   113.3 MBYTE,   TOTAL:    187.3 MBYTE

 OPERATOR DM      FOR CENTER  0  COORDINATES:    0.000000    0.000000    0.000000


 **********************************************************************************************************************************
 DATASETS  * FILE   NREC   LENGTH (MB)   RECORD NAMES
              1      19       65.02       500      610      700      900      950      970     1000      129      960     1100   
                                          VAR    BASINP    GEOM    SYMINP    ZMAT    AOBASIS   BASIS     P2S    ABASIS      S 
                                         1400     1410     1200     1210     1080     1600     1650     1300     1700   
                                           T        V       H0       H01     AOSYM     SMH    MOLCAS    ERIS     OPER   

 PROGRAMS   *        TOTAL       INT
 CPU TIMES  *         2.28      2.14
 REAL TIME  *         3.52 SEC
 DISK USED  *       179.02 MB
 **********************************************************************************************************************************


 Program * Restricted Hartree-Fock

 Orbital guess generated from atomic densities. Full valence occupancy:   11   3

 Initial occupancy:   8   2

 NELEC=   20   SYM=1   MS2= 0   THRE=1.0D-08   THRD=3.2D-06   THRG=3.2D-06  HFMA2=F  DIIS_START=2   DIIS_MAX=10   DIIS_INCORE=F

 Level shifts:    0.00 (CLOSED)    0.00 (OPEN)    0.30 (GAP_MIN)

 ITER           ETOT              DE          GRAD        DDIFF     DIIS  NEXP   TIME(IT)  TIME(TOT)  DIAG
   1     -152.05157645    -152.05157645     0.00D+00     0.10D+00     0     0       0.10      0.20    start
   2     -152.10309362      -0.05151717     0.12D-01     0.17D-01     1     0       0.10      0.30    diag
   3     -152.11998876      -0.01689514     0.69D-02     0.54D-02     2     0       0.10      0.40    diag
   4     -152.12037713      -0.00038837     0.71D-03     0.90D-03     3     0       0.10      0.50    diag
   5     -152.12041370      -0.00003657     0.19D-03     0.28D-03     4     0       0.10      0.60    diag
   6     -152.12041596      -0.00000226     0.39D-04     0.70D-04     5     0       0.10      0.70    diag
   7     -152.12041603      -0.00000008     0.72D-05     0.15D-04     6     0       0.10      0.80    diag
   8     -152.12041604      -0.00000000     0.20D-05     0.24D-05     7     0       0.10      0.90    fixocc
   9     -152.12041604      -0.00000000     0.66D-06     0.85D-06     0     0       0.11      1.01    diag

 Final occupancy:   8   2

 !RHF STATE 1.1 Energy               -152.120416037030
  RHF One-electron energy            -282.488408594700
  RHF Two-electron energy              93.875126006960
  RHF Kinetic energy                  151.966638330972
  RHF Nuclear energy                   36.492866550711
  RHF Virial quotient                  -1.001011917535

 !RHF STATE 1.1 Dipole moment           0.01347275    -1.08578353     0.00000000
 Dipole moment /Debye                   0.03424432    -2.75978646     0.00000000

 Orbital energies:

           1.1          2.1          3.1          4.1          5.1          6.1          7.1          8.1          9.1         10.1
    -20.584691   -20.522294    -1.372712    -1.310815    -0.685183    -0.606837    -0.550345    -0.524971     0.124224     0.183458

           1.2          2.2          3.2          4.2
     -0.737234    -0.473992     0.191336     0.511004


 HOMO      2.2    -0.473992 =     -12.8980eV
 LUMO      9.1     0.124224 =       3.3803eV
 LUMO-HOMO         0.598217 =      16.2783eV

 Orbitals saved in record  2100.2


 **********************************************************************************************************************************
 DATASETS  * FILE   NREC   LENGTH (MB)   RECORD NAMES
              1      19       65.02       500      610      700      900      950      970     1000      129      960     1100   
                                          VAR    BASINP    GEOM    SYMINP    ZMAT    AOBASIS   BASIS     P2S    ABASIS      S 
                                         1400     1410     1200     1210     1080     1600     1650     1300     1700   
                                           T        V       H0       H01     AOSYM     SMH    MOLCAS    ERIS     OPER   

              2       4        0.58       700     1000      520     2100   
                                         GEOM     BASIS   MCVARS     RHF  

 PROGRAMS   *        TOTAL    HF-SCF       INT
 CPU TIMES  *         3.29      1.01      2.14
 REAL TIME  *         4.85 SEC
 DISK USED  *       179.02 MB
 **********************************************************************************************************************************


 PROGRAM * MP3 (Closed-shell)     Authors: C. Hampel, H.-J. Werner, 1991, M. Deegan, P.J. Knowles, 1992


 Convergence thresholds:  THRVAR = 1.00D-08  THRDEN = 1.00D-06

 Number of core orbitals:           2 (   2   0 )
 Number of closed-shell orbitals:   8 (   6   2 )
 Number of external orbitals:     106 (  66  40 )

 Molecular orbitals read from record     2100.2  Type=RHF/CANONICAL  

 Number of N-1 electron functions:               8
 Number of N-2 electron functions:              36
 Number of singly external CSFs:               476
 Number of doubly external CSFs:            182904
 Total number of CSFs:                      183381

 Length of J-op  integral file:               0.00 MB
 Length of K-op  integral file:               0.56 MB

 Integral transformation finished. Total CPU:   0.18 sec, npass=  1  Memory used:   0.36 MW

 Reference energy:                   -152.12041604

                        CORR.ENERGY   TOTAL ENERGY   ENERGY CHANGE
 MP2:                   -0.52638698  -152.64680302    -0.52638698

 SCS-MP2 correlation energy:           -0.52015495   (PS=  1.200000  PT=  0.333333)
 SCS-MP2 total energy:               -152.64057099

 MP3(D):                -0.53388568  -152.65430172    -0.00749870



 RESULTS
 =======

  Reference energy                   -152.120416037030
  MP3 singlet pair energy              -0.356845302737
  MP3 triplet pair energy              -0.177040379929
  MP3 correlation energy               -0.533885682666

 !MP3 total energy                   -152.654301719696

 Timing summary (sec):

 STEP                 CPU(USER)    SYS     CPU(TOT)    WALL
 Transformation          0.19      0.01      0.20      0.22
 CCSD iterations         3.84      0.02      3.86      0.34

 Program statistics:

 Available memory in ccsd:               805306104
 Min. memory needed in ccsd:                569605
 Max. memory used in ccsd:                  720513
 Max. memory used in cckext:                804556 ( 1 integral passes)



 **********************************************************************************************************************************
 DATASETS  * FILE   NREC   LENGTH (MB)   RECORD NAMES
              1      20       67.99       500      610      700      900      950      970     1000      129      960     1100   
                                          VAR    BASINP    GEOM    SYMINP    ZMAT    AOBASIS   BASIS     P2S    ABASIS      S 
                                         1400     1410     1200     1210     1080     1600     1650     1300     1700     1380   
                                           T        V       H0       H01     AOSYM     SMH    MOLCAS    ERIS     OPER     JKOP   

              2       4        0.58       700     1000      520     2100   
                                         GEOM     BASIS   MCVARS     RHF  

 PROGRAMS   *        TOTAL       MP3    HF-SCF       INT
 CPU TIMES  *         3.84      0.54      1.01      2.14
 REAL TIME  *         5.46 SEC
 DISK USED  *       179.02 MB
 **********************************************************************************************************************************

 Dump information in style XML to xml output                                                                      

 Orbitals will not be exported.

 **********************************************************************************************************************************

 MP3/cc-pVTZ energy=   -152.654301719696

             MP3          HF-SCF
   -152.65430172   -152.12041604
 **********************************************************************************************************************************
 Molpro calculation terminated
