
 Working directory              : /home/jovyan/scratch/molpro.REXhisCqhA/
 Global scratch directory       : /home/jovyan/scratch/molpro.REXhisCqhA/
 Wavefunction directory         : /home/jovyan/wfu/
 Main file repository           : /home/jovyan/scratch/molpro.REXhisCqhA/

 id        : cardiff

 Nodes                nprocs
 jupyter-c-2efrancisan    1
 GA implementation: MPI file
 GA implementation (serial work in mppx): MPI file

 Using customized tuning parameters: mindgm=1; mindgv=20; mindgc=4; mindgr=1; noblas=0; minvec=7
 default implementation of scratch files=df  


 Variables initialized (1031), CPU time= 0.01 sec
 
 
 
 geometry={
 8
  C -0.077016 0.551986 0.027408
  H -0.238295 1.625354 0.118269
  C 1.139606 -0.193208 -0.031496
  H 1.355044 -0.698094 0.908034
  H -0.073907 -1.134900 -0.245811
  H 2.028949 0.223228 -0.494171
  N -1.065094 -0.300004 -0.078808
  H -1.991673 -0.068229 0.289860
 }
 basis=cc-pVDZ
 angstrom
 
 
 hf; papt;mp3
 
 
 
 {put,xml;noorbitals,nobasis}
 Commands initialized (841), CPU time= 0.01 sec, 704 directives.
 Default parameters read. Elapsed time= 0.09 sec

 Checking input...
 Passed
1


                                         ***  PROGRAM SYSTEM MOLPRO  ***
                                       Copyright, TTI GmbH Stuttgart, 2015
                                    Version 2023.1 linked Mon Jun  5 13:27:10 2023


 **********************************************************************************************************************************
 LABEL *                                                                                                                                                                 
  (16 PROC) 64 bit serial version                                                        DATE: 02-Aug-23          TIME: 15:43:38  
 **********************************************************************************************************************************

 SHA1:             9738a14712571edd23541b6d7c4f3a3d766f8287
 **********************************************************************************************************************************

 Memory per process:       805 MW
 Total memory per node:   1074 MW
 Total GA space:           268 MW

 GA preallocation disabled
 GA check enabled

 Geometry recognized as XYZ


 Variable memory set to 805.3 MW

 SETTING BASIS          =    CC-PVDZ


 Recomputing integrals since basis changed


 Using spherical harmonics

 Library entry C      S cc-pVDZ              selected for orbital group  1
 Library entry C      P cc-pVDZ              selected for orbital group  1
 Library entry C      D cc-pVDZ              selected for orbital group  1
 Library entry H      S cc-pVDZ              selected for orbital group  2
 Library entry H      P cc-pVDZ              selected for orbital group  2
 Library entry N      S cc-pVDZ              selected for orbital group  5
 Library entry N      P cc-pVDZ              selected for orbital group  5
 Library entry N      D cc-pVDZ              selected for orbital group  5


 PROGRAM * SEWARD (Integral evaluation for generally contracted gaussian basis sets)     Author: Roland Lindh, 1990

 Geometry written to block  1 of record 700


 Point group  C1  



 ATOMIC COORDINATES

 NR  ATOM    CHARGE       X              Y              Z

   1  C       6.00   -0.145539147    1.043102365    0.051793614
   2  H       1.00   -0.450312287    3.071473916    0.223496019
   3  C       6.00    2.153543230   -0.365110205   -0.059518814
   4  H       1.00    2.560662047   -1.319206469    1.715935572
   5  H       1.00   -0.139663989   -2.144650179   -0.464515468
   6  H       1.00    3.834157931    0.421839783   -0.933847849
   7  N       7.00   -2.012735957   -0.566925396   -0.148925536
   8  H       1.00   -3.763716500   -0.128934124    0.547756014

 Bond lengths in Bohr (Angstrom)

 1-2  2.058314731  1-3  2.698375970  1-7  2.473641343  3-4  2.056279088  3-6  2.051391556
     ( 1.089213248)     ( 1.427919070)     ( 1.308994627)     ( 1.088136033)     ( 1.085549662)

 5-7  2.469253145  7-8  1.934718171
     ( 1.306672492)     ( 1.023808765)

 Bond angles

  1-3-4  112.03778758   1-3-6  121.02472757   1-7-5   81.58495725   1-7-8  120.43656838

  2-1-3  130.08190268   2-1-7  122.43929315   3-1-7  107.46472191   4-3-6  112.56910787

  5-7-8  151.30523863

 NUCLEAR CHARGE:                   24
 NUMBER OF PRIMITIVE AOS:         116
 NUMBER OF SYMMETRY AOS:          113
 NUMBER OF CONTRACTIONS:           67   (   67A   )
 NUMBER OF INNER CORE ORBITALS:     0   (    0A   )
 NUMBER OF OUTER CORE ORBITALS:     3   (    3A   )
 NUMBER OF VALENCE ORBITALS:       17   (   17A   )


 NUCLEAR REPULSION ENERGY   72.83779533

 Eigenvalues of metric

         1 0.289E-02 0.724E-02 0.160E-01 0.210E-01 0.280E-01 0.311E-01 0.370E-01 0.405E-01


 Contracted 2-electron integrals neglected if value below      1.0D-11
 AO integral compression algorithm  1   Integral accuracy      1.0D-11

     13.631 MB (compressed) written to integral file ( 56.0%)


 NUMBER OF SORTED TWO-ELECTRON INTEGRALS:    2595781.     BUFFER LENGTH:  32768
 NUMBER OF SEGMENTS:   1  SEGMENT LENGTH:    2595781      RECORD LENGTH: 524288

 Memory used in sort:       3.15 MW

 SORT1 READ     3034725. AND WROTE     2569558. INTEGRALS IN      8 RECORDS. CPU TIME:     0.04 SEC, REAL TIME:     0.20 SEC
 SORT2 READ     2569558. AND WROTE     2595781. INTEGRALS IN     52 RECORDS. CPU TIME:     0.09 SEC, REAL TIME:     0.11 SEC

 FILE SIZES:   FILE 1:    43.9 MBYTE,  FILE 4:    33.6 MBYTE,   TOTAL:     77.5 MBYTE

 OPERATOR DM      FOR CENTER  0  COORDINATES:    0.000000    0.000000    0.000000


 **********************************************************************************************************************************
 DATASETS  * FILE   NREC   LENGTH (MB)   RECORD NAMES
              1      19       39.84       500      610      700      900      950      970     1000      129      960     1100   
                                          VAR    BASINP    GEOM    SYMINP    ZMAT    AOBASIS   BASIS     P2S    ABASIS      S 
                                         1400     1410     1200     1210     1080     1600     1650     1300     1700   
                                           T        V       H0       H01     AOSYM     SMH    MOLCAS    ERIS     OPER   

 PROGRAMS   *        TOTAL       INT
 CPU TIMES  *         1.06      0.92
 REAL TIME  *         2.45 SEC
 DISK USED  *        74.38 MB
 **********************************************************************************************************************************


 Program * Restricted Hartree-Fock

 Orbital guess generated from atomic densities. Full valence occupancy:   20

 Initial occupancy:  12

 NELEC=   24   SYM=1   MS2= 0   THRE=1.0D-08   THRD=3.2D-06   THRG=3.2D-06  HFMA2=F  DIIS_START=2   DIIS_MAX=10   DIIS_INCORE=F

 Level shifts:    0.00 (CLOSED)    0.00 (OPEN)    0.30 (GAP_MIN)

 ITER           ETOT              DE          GRAD        DDIFF     DIIS  NEXP   TIME(IT)  TIME(TOT)  DIAG
   1     -132.90887261    -132.90887261     0.00D+00     0.13D+00     0     0       0.02      0.04    start
   2     -132.94590392      -0.03703131     0.70D-02     0.16D-01     1     0       0.03      0.07    diag
   3     -132.95255201      -0.00664809     0.30D-02     0.53D-02     2     0       0.03      0.10    diag
   4     -132.95339675      -0.00084475     0.84D-03     0.19D-02     3     0       0.02      0.12    diag
   5     -132.95348671      -0.00008995     0.33D-03     0.56D-03     4     0       0.03      0.15    diag
   6     -132.95350298      -0.00001628     0.89D-04     0.25D-03     5     0       0.03      0.18    diag
   7     -132.95350456      -0.00000158     0.30D-04     0.80D-04     6     0       0.02      0.20    diag
   8     -132.95350477      -0.00000021     0.86D-05     0.26D-04     7     0       0.03      0.23    fixocc
   9     -132.95350480      -0.00000004     0.35D-05     0.10D-04     8     0       0.02      0.25    diag
  10     -132.95350481      -0.00000001     0.14D-05     0.51D-05     9     0       0.03      0.28    diag/orth
  11     -132.95350481      -0.00000000     0.50D-06     0.20D-05     9     0       0.02      0.30    diag
  12     -132.95350481      -0.00000000     0.21D-06     0.45D-06     0     0       0.03      0.33    diag

 Final occupancy:  12

 !RHF STATE 1.1 Energy               -132.953504812713
  RHF One-electron energy            -323.191191452024
  RHF Two-electron energy             117.399891312254
  RHF Kinetic energy                  132.799047748453
  RHF Nuclear energy                   72.837795327056
  RHF Virial quotient                  -1.001163088643

 !RHF STATE 1.1 Dipole moment          -0.58976412     0.61219165     0.41162381
 Dipole moment /Debye                  -1.49903086     1.55603597     1.04624338

 Orbital energies:

           1.1          2.1          3.1          4.1          5.1          6.1          7.1          8.1          9.1         10.1
    -15.580847   -11.310899   -11.186955    -1.242004    -0.960435    -0.787472    -0.734118    -0.575342    -0.562756    -0.510017

          11.1         12.1         13.1         14.1
     -0.433746    -0.311113     0.136909     0.184524


 HOMO     12.1    -0.311113 =      -8.4658eV
 LUMO     13.1     0.136909 =       3.7255eV
 LUMO-HOMO         0.448023 =      12.1913eV

 Orbitals saved in record  2100.2


 **********************************************************************************************************************************
 DATASETS  * FILE   NREC   LENGTH (MB)   RECORD NAMES
              1      19       39.84       500      610      700      900      950      970     1000      129      960     1100   
                                          VAR    BASINP    GEOM    SYMINP    ZMAT    AOBASIS   BASIS     P2S    ABASIS      S 
                                         1400     1410     1200     1210     1080     1600     1650     1300     1700   
                                           T        V       H0       H01     AOSYM     SMH    MOLCAS    ERIS     OPER   

              2       4        0.57       700     1000      520     2100   
                                         GEOM     BASIS   MCVARS     RHF  

 PROGRAMS   *        TOTAL    HF-SCF       INT
 CPU TIMES  *         1.40      0.33      0.92
 REAL TIME  *         2.90 SEC
 DISK USED  *        74.38 MB
 **********************************************************************************************************************************


 PROGRAM * PAPT (Closed-shell)     Authors: C. Hampel, H.-J. Werner, 1991, P.J. Knowles, 2021


 Convergence thresholds:  THRVAR = 1.00D-08  THRDEN = 1.00D-06

 Number of core orbitals:           3 (   3 )
 Number of closed-shell orbitals:   9 (   9 )
 Number of external orbitals:      55 (  55 )

 Molecular orbitals read from record     2100.2  Type=RHF/CANONICAL  

 Number of N-1 electron functions:               9
 Number of N-2 electron functions:              45
 Number of singly external CSFs:               495
 Number of doubly external CSFs:            122760
 Total number of CSFs:                      123256

 Length of J-op  integral file:               0.00 MB
 Length of K-op  integral file:               0.37 MB

 Integral transformation finished. Total CPU:   0.06 sec, npass=  1  Memory used:   0.48 MW

 Reference energy:                   -132.95350481

                        CORR.ENERGY   TOTAL ENERGY   ENERGY CHANGE
 MP2:                   -0.46892084  -133.42242565    -0.46892084

 SCS-MP2 correlation energy:           -0.46092135   (PS=  1.200000  PT=  0.333333)
 SCS-MP2 total energy:               -133.41442616
 Iteration:   1     0.2267D+00
 Iteration:   2     0.1201D+01
 Iteration:   3     0.6832D-01
 Iteration:   4     0.6949D-01
 Iteration:   5     0.2690D-01
 Iteration:   6     0.1855D-01
 Iteration:   7     0.2432D-01
 Iteration:   8     0.5223D-02
 Iteration:   9     0.7948D-02
 Iteration:  10     0.2184D-02
 Iteration:  11     0.1347D-02
 Iteration:  12     0.1838D-02
 Iteration:  13     0.3556D-03
 Iteration:  14     0.7710D-03
 Iteration:  15     0.1101D-03
 Iteration:  16     0.8079D-04
 PAPT operator written to  7000.1
 PAPT orbitals and eigenvalues written to  7000.2

 MP3(D):                -0.48994836  -133.44345317    -0.02102752



 RESULTS
 =======

  Reference energy                   -132.953504812713
  MP3 singlet pair energy              -0.326868483929
  MP3 triplet pair energy              -0.163079874399
  MP3 correlation energy               -0.489948358328

 !MP3 total energy                   -133.443453171042

 Timing summary (sec):

 STEP                 CPU(USER)    SYS     CPU(TOT)    WALL
 Transformation          0.07      0.02      0.09      0.23
 CCSD iterations         2.37      0.03      2.40      0.80

 Program statistics:

 Available memory in ccsd:               805306032
 Min. memory needed in ccsd:                388739
 Max. memory used in ccsd:                  484958
 Max. memory used in cckext:                471950 ( 1 integral passes)



 **********************************************************************************************************************************
 DATASETS  * FILE   NREC   LENGTH (MB)   RECORD NAMES
              1      21       42.25       500      610      700      900      950      970     1000      129      960     1100   
                                          VAR    BASINP    GEOM    SYMINP    ZMAT    AOBASIS   BASIS     P2S    ABASIS      S 
                                         1400     1410     1200     1210     1080     1600     1650     1300     1700     1380   
                                           T        V       H0       H01     AOSYM     SMH    MOLCAS    ERIS     OPER     JKOP   
                                         7000   
                                        PAPT AO    

              2       5        0.77       700     1000      520     2100     7000   
                                         GEOM     BASIS   MCVARS     RHF     PAPT   

 PROGRAMS   *        TOTAL      PAPT    HF-SCF       INT
 CPU TIMES  *         2.13      0.72      0.33      0.92
 REAL TIME  *         3.99 SEC
 DISK USED  *        74.38 MB
 **********************************************************************************************************************************


 PROGRAM * MP3 (Closed-shell)     Authors: C. Hampel, H.-J. Werner, 1991, M. Deegan, P.J. Knowles, 1992


 Convergence thresholds:  THRVAR = 1.00D-08  THRDEN = 1.00D-06

 Number of core orbitals:           3 (   3 )
 Number of closed-shell orbitals:   9 (   9 )
 Number of external orbitals:      55 (  55 )

 Molecular orbitals read from record     7000.2  Type=PAPT/CANONICAL (state 1.1)

 Number of N-1 electron functions:               9
 Number of N-2 electron functions:              45
 Number of singly external CSFs:               495
 Number of doubly external CSFs:            122760
 Total number of CSFs:                      123256

 Length of J-op  integral file:               0.00 MB
 Length of K-op  integral file:               0.37 MB

 Integral transformation finished. Total CPU:   0.05 sec, npass=  1  Memory used:   0.48 MW
 Orbital energies read from record       7000.2  Type=PAPT/CANONICAL (state 1.1)

 Reference energy:                   -132.95350481

                        CORR.ENERGY   TOTAL ENERGY   ENERGY CHANGE
 MP2:                   -0.49520128  -133.44870609    -0.49520128

 SCS-MP2 correlation energy:           -0.48989664   (PS=  1.200000  PT=  0.333333)
 SCS-MP2 total energy:               -133.44340146

 MP3(D):                -0.49544157  -133.44894638    -0.00024029



 RESULTS
 =======

  Reference energy                   -132.953504812713
  MP3 singlet pair energy              -0.332628702576
  MP3 triplet pair energy              -0.162812868764
  MP3 correlation energy               -0.495441571340

 !MP3 total energy                   -133.448946384053

 Timing summary (sec):

 STEP                 CPU(USER)    SYS     CPU(TOT)    WALL
 Transformation          0.09      0.01      0.10      0.35
 CCSD iterations         2.66      0.02      2.68      0.19

 Program statistics:

 Available memory in ccsd:               805306032
 Min. memory needed in ccsd:                388739
 Max. memory used in ccsd:                  484958
 Max. memory used in cckext:                471950 ( 1 integral passes)



 **********************************************************************************************************************************
 DATASETS  * FILE   NREC   LENGTH (MB)   RECORD NAMES
              1      21       42.25       500      610      700      900      950      970     1000      129      960     1100   
                                          VAR    BASINP    GEOM    SYMINP    ZMAT    AOBASIS   BASIS     P2S    ABASIS      S 
                                         1400     1410     1200     1210     1080     1600     1650     1300     1700     1380   
                                           T        V       H0       H01     AOSYM     SMH    MOLCAS    ERIS     OPER     JKOP   
                                         7000   
                                        PAPT AO    

              2       5        0.77       700     1000      520     2100     7000   
                                         GEOM     BASIS   MCVARS     RHF     PAPT   

 PROGRAMS   *        TOTAL       MP3      PAPT    HF-SCF       INT
 CPU TIMES  *         2.44      0.31      0.72      0.33      0.92
 REAL TIME  *         4.60 SEC
 DISK USED  *        74.38 MB
 **********************************************************************************************************************************

 Dump information in style XML to xml output                                                                      

 Orbitals will not be exported.

 **********************************************************************************************************************************

 MP3/cc-pVDZ energy=   -133.448946384053

             MP3            PAPT          HF-SCF
   -133.44894638   -133.44345317   -132.95350481
 **********************************************************************************************************************************
 Molpro calculation terminated
