
 Working directory              : /home/jovyan/scratch/molpro.Zxdy0d5Ikt/
 Global scratch directory       : /home/jovyan/scratch/molpro.Zxdy0d5Ikt/
 Wavefunction directory         : /home/jovyan/wfu/
 Main file repository           : /home/jovyan/scratch/molpro.Zxdy0d5Ikt/

 id        : cardiff

 Nodes                nprocs
 jupyter-c-2efrancisan    1
 GA implementation: MPI file
 GA implementation (serial work in mppx): MPI file

 Using customized tuning parameters: mindgm=1; mindgv=20; mindgc=4; mindgr=1; noblas=0; minvec=7
 default implementation of scratch files=df  


 Variables initialized (1031), CPU time= 0.00 sec
 
 
 
 geometry={
 9
    C   -0.00528851985472      0.20512421101379      0.00275921077523
    C   -0.00526015092496     -0.01129198580653      1.49376148811973
    O   1.00772508331426      0.41655042738661     -0.62218748794772
    N   -1.21642245805803      0.08470359878794     -0.60346144181279
    H   -2.06679695180295      0.07427963622758     -0.07915043370071
    H   -1.26211803817631      0.28560014303201     -1.58484238463433
    H   -0.96834681496787      0.19978673703828      1.95046221232140
    H   0.25826546051324     -1.04755216675945      1.69464698528594
    H   0.75400738995733      0.61582839907976      1.94252685159325
 }
 basis=cc-pVDZ
 angstrom
 
 
 hf; papt;mp4
 
 
 
 {put,xml;noorbitals,nobasis}
 Commands initialized (841), CPU time= 0.01 sec, 704 directives.
 Default parameters read. Elapsed time= 0.08 sec

 Checking input...
 Passed
1


                                         ***  PROGRAM SYSTEM MOLPRO  ***
                                       Copyright, TTI GmbH Stuttgart, 2015
                                    Version 2023.1 linked Mon Jun  5 13:27:10 2023


 **********************************************************************************************************************************
 LABEL *                                                                                                                                                                 
  (16 PROC) 64 bit serial version                                                        DATE: 03-Aug-23          TIME: 22:43:04  
 **********************************************************************************************************************************

 SHA1:             9738a14712571edd23541b6d7c4f3a3d766f8287
 **********************************************************************************************************************************

 Memory per process:       805 MW
 Total memory per node:   1074 MW
 Total GA space:           268 MW

 GA preallocation disabled
 GA check enabled

 Geometry recognized as XYZ


 Variable memory set to 805.3 MW

 SETTING BASIS          =    CC-PVDZ


 Recomputing integrals since basis changed


 Using spherical harmonics

 Library entry C      S cc-pVDZ              selected for orbital group  1
 Library entry C      P cc-pVDZ              selected for orbital group  1
 Library entry C      D cc-pVDZ              selected for orbital group  1
 Library entry O      S cc-pVDZ              selected for orbital group  2
 Library entry O      P cc-pVDZ              selected for orbital group  2
 Library entry O      D cc-pVDZ              selected for orbital group  2
 Library entry N      S cc-pVDZ              selected for orbital group  3
 Library entry N      P cc-pVDZ              selected for orbital group  3
 Library entry N      D cc-pVDZ              selected for orbital group  3
 Library entry H      S cc-pVDZ              selected for orbital group  4
 Library entry H      P cc-pVDZ              selected for orbital group  4


 PROGRAM * SEWARD (Integral evaluation for generally contracted gaussian basis sets)     Author: Roland Lindh, 1990

 Geometry written to block  1 of record 700


 Point group  C1  



 ATOMIC COORDINATES

 NR  ATOM    CHARGE       X              Y              Z

   1  C       6.00   -0.009993854    0.387628580    0.005214153
   2  C       6.00   -0.009940245   -0.021338761    2.822800108
   3  O       8.00    1.904324416    0.787166225   -1.175763950
   4  N       7.00   -2.298705298    0.160066603   -1.140376852
   5  H       1.00   -3.905680194    0.140368169   -0.149572642
   6  H       1.00   -2.385057429    0.539706051   -2.994918058
   7  H       1.00   -1.829910274    0.377542216    3.685839398
   8  H       1.00    0.488050988   -1.979586696    3.202418680
   9  H       1.00    1.424867463    1.163747014    3.670843739

 Bond lengths in Bohr (Angstrom)

 1-2  2.847111678  1-3  2.284503020  1-4  2.569506426  2-7  2.053346965  2-8  2.055928137
     ( 1.506626617)     ( 1.208906937)     ( 1.359724244)     ( 1.086584420)     ( 1.087950318)

 2-9  2.045062212  4-5  1.887974928  4-6  1.894968571
     ( 1.082200318)     ( 0.999073307)     ( 1.002774183)

 Bond angles

  1-2-7  112.83192448   1-2-8  108.63593940   1-2-9  109.09602661   1-4-5  121.67472559

  1-4-6  117.33394766   2-1-3  122.45906074   2-1-4  115.37321062   3-1-4  122.09988640

  5-4-6  118.48344158   7-2-8  108.79076281   7-2-9  109.57202264   8-2-9  107.78484100

 NUCLEAR CHARGE:                   32
 NUMBER OF PRIMITIVE AOS:         143
 NUMBER OF SYMMETRY AOS:          139
 NUMBER OF CONTRACTIONS:           81   (   81A   )
 NUMBER OF INNER CORE ORBITALS:     0   (    0A   )
 NUMBER OF OUTER CORE ORBITALS:     4   (    4A   )
 NUMBER OF VALENCE ORBITALS:       21   (   21A   )


 NUCLEAR REPULSION ENERGY  122.40200774

 Eigenvalues of metric

         1 0.355E-02 0.487E-02 0.935E-02 0.166E-01 0.250E-01 0.298E-01 0.355E-01 0.362E-01


 Contracted 2-electron integrals neglected if value below      1.0D-11
 AO integral compression algorithm  1   Integral accuracy      1.0D-11

     26.477 MB (compressed) written to integral file ( 53.2%)


 NUMBER OF SORTED TWO-ELECTRON INTEGRALS:    5516181.     BUFFER LENGTH:  32768
 NUMBER OF SEGMENTS:   1  SEGMENT LENGTH:    5516181      RECORD LENGTH: 524288

 Memory used in sort:       6.07 MW

 SORT1 READ     6264558. AND WROTE     5466505. INTEGRALS IN     16 RECORDS. CPU TIME:     0.06 SEC, REAL TIME:     0.18 SEC
 SORT2 READ     5466505. AND WROTE     5516181. INTEGRALS IN    101 RECORDS. CPU TIME:     0.14 SEC, REAL TIME:     0.18 SEC

 FILE SIZES:   FILE 1:    56.9 MBYTE,  FILE 4:    67.2 MBYTE,   TOTAL:    124.0 MBYTE

 OPERATOR DM      FOR CENTER  0  COORDINATES:    0.000000    0.000000    0.000000


 **********************************************************************************************************************************
 DATASETS  * FILE   NREC   LENGTH (MB)   RECORD NAMES
              1      19       51.10       500      610      700      900      950      970     1000      129      960     1100   
                                          VAR    BASINP    GEOM    SYMINP    ZMAT    AOBASIS   BASIS     P2S    ABASIS      S 
                                         1400     1410     1200     1210     1080     1600     1650     1300     1700   
                                           T        V       H0       H01     AOSYM     SMH    MOLCAS    ERIS     OPER   

 PROGRAMS   *        TOTAL       INT
 CPU TIMES  *         1.46      1.32
 REAL TIME  *         2.92 SEC
 DISK USED  *       118.75 MB
 **********************************************************************************************************************************


 Program * Restricted Hartree-Fock

 Orbital guess generated from atomic densities. Full valence occupancy:   25

 Initial occupancy:  16

 NELEC=   32   SYM=1   MS2= 0   THRE=1.0D-08   THRD=3.2D-06   THRG=3.2D-06  HFMA2=F  DIIS_START=2   DIIS_MAX=10   DIIS_INCORE=F

 Level shifts:    0.00 (CLOSED)    0.00 (OPEN)    0.30 (GAP_MIN)

 ITER           ETOT              DE          GRAD        DDIFF     DIIS  NEXP   TIME(IT)  TIME(TOT)  DIAG
   1     -207.89670571    -207.89670571     0.00D+00     0.13D+00     0     0       0.06      0.11    start
   2     -207.96008493      -0.06337922     0.97D-02     0.22D-01     1     0       0.06      0.17    diag
   3     -207.99434483      -0.03425990     0.67D-02     0.84D-02     2     0       0.06      0.23    diag
   4     -207.99613937      -0.00179454     0.10D-02     0.22D-02     3     0       0.05      0.28    diag
   5     -207.99636007      -0.00022070     0.33D-03     0.72D-03     4     0       0.06      0.34    diag
   6     -207.99639188      -0.00003181     0.99D-04     0.29D-03     5     0       0.05      0.39    diag
   7     -207.99639685      -0.00000497     0.45D-04     0.12D-03     6     0       0.06      0.45    diag
   8     -207.99639751      -0.00000066     0.17D-04     0.45D-04     7     0       0.06      0.51    fixocc
   9     -207.99639759      -0.00000008     0.53D-05     0.18D-04     8     0       0.05      0.56    diag
  10     -207.99639760      -0.00000000     0.12D-05     0.40D-05     9     0       0.06      0.62    diag/orth
  11     -207.99639760      -0.00000000     0.22D-06     0.65D-06     9     0       0.06      0.68    diag
  12     -207.99639760      -0.00000000     0.65D-07     0.14D-06     0     0       0.06      0.74    diag

 Final occupancy:  16

 !RHF STATE 1.1 Energy               -207.996397596892
  RHF One-electron energy            -525.715062644148
  RHF Two-electron energy             195.316657302822
  RHF Kinetic energy                  207.861536269823
  RHF Nuclear energy                  122.402007744434
  RHF Virial quotient                  -1.000648803668

 !RHF STATE 1.1 Dipole moment          -1.44969417    -0.13917845     0.60750223
 Dipole moment /Debye                  -3.68475504    -0.35375634     1.54411664

 Orbital energies:

           1.1          2.1          3.1          4.1          5.1          6.1          7.1          8.1          9.1         10.1
    -20.510499   -15.581152   -11.349419   -11.239047    -1.379823    -1.208102    -1.003992    -0.793484    -0.720518    -0.659520

          11.1         12.1         13.1         14.1         15.1         16.1         17.1         18.1
     -0.612700    -0.580877    -0.558802    -0.520695    -0.415766    -0.406487     0.168351     0.197707


 HOMO     16.1    -0.406487 =     -11.0611eV
 LUMO     17.1     0.168351 =       4.5811eV
 LUMO-HOMO         0.574838 =      15.6421eV

 Orbitals saved in record  2100.2


 **********************************************************************************************************************************
 DATASETS  * FILE   NREC   LENGTH (MB)   RECORD NAMES
              1      19       51.10       500      610      700      900      950      970     1000      129      960     1100   
                                          VAR    BASINP    GEOM    SYMINP    ZMAT    AOBASIS   BASIS     P2S    ABASIS      S 
                                         1400     1410     1200     1210     1080     1600     1650     1300     1700   
                                           T        V       H0       H01     AOSYM     SMH    MOLCAS    ERIS     OPER   

              2       4        0.62       700     1000      520     2100   
                                         GEOM     BASIS   MCVARS     RHF  

 PROGRAMS   *        TOTAL    HF-SCF       INT
 CPU TIMES  *         2.20      0.74      1.32
 REAL TIME  *         3.74 SEC
 DISK USED  *       118.75 MB
 **********************************************************************************************************************************


 PROGRAM * PAPT (Closed-shell)     Authors: C. Hampel, H.-J. Werner, 1991, P.J. Knowles, 2021


 Convergence thresholds:  THRVAR = 1.00D-08  THRDEN = 1.00D-06

 Number of core orbitals:           4 (   4 )
 Number of closed-shell orbitals:  12 (  12 )
 Number of external orbitals:      65 (  65 )

 Molecular orbitals read from record     2100.2  Type=RHF/CANONICAL  

 Number of N-1 electron functions:              12
 Number of N-2 electron functions:              78
 Number of singly external CSFs:               780
 Number of doubly external CSFs:            304590
 Total number of CSFs:                      305371

 Length of J-op  integral file:               0.00 MB
 Length of K-op  integral file:               0.51 MB

 Integral transformation finished. Total CPU:   0.14 sec, npass=  1  Memory used:   1.02 MW

 Reference energy:                   -207.99639760

                        CORR.ENERGY   TOTAL ENERGY   ENERGY CHANGE
 MP2:                   -0.62156662  -208.61796421    -0.62156662

 SCS-MP2 correlation energy:           -0.60848928   (PS=  1.200000  PT=  0.333333)
 SCS-MP2 total energy:               -208.60488687
 Iteration:   1     0.2384D+00
 Iteration:   2     0.5721D+00
 Iteration:   3     0.1131D+00
 Iteration:   4     0.6403D-01
 Iteration:   5     0.4260D+00
 Iteration:   6     0.2877D-01
 Iteration:   7     0.5141D-01
 Iteration:   8     0.1999D-01
 Iteration:   9     0.1330D-01
 Iteration:  10     0.1643D-01
 Iteration:  11     0.3982D-02
 Iteration:  12     0.5581D-02
 Iteration:  13     0.2157D-02
 Iteration:  14     0.9756D-03
 Iteration:  15     0.5065D-02
 Iteration:  16     0.4204D-03
 Iteration:  17     0.5393D-03
 Iteration:  18     0.2518D-03
 Iteration:  19     0.1976D-03
 Iteration:  20     0.8916D-04
 PAPT operator written to  7000.1
 PAPT orbitals and eigenvalues written to  7000.2

 MP3(D):                -0.64379249  -208.64019008    -0.02222587



 RESULTS
 =======

  Reference energy                   -207.996397596892
  MP3 singlet pair energy              -0.424041087978
  MP3 triplet pair energy              -0.219751399139
  MP3 correlation energy               -0.643792487117

 !MP3 total energy                   -208.640190084009

 Timing summary (sec):

 STEP                 CPU(USER)    SYS     CPU(TOT)    WALL
 Transformation          0.16      0.03      0.19      0.32
 CCSD iterations         4.54      0.07      4.61      2.25

 Program statistics:

 Available memory in ccsd:               805305776
 Min. memory needed in ccsd:                882754
 Max. memory used in ccsd:                 1134352
 Max. memory used in cckext:               1119068 ( 1 integral passes)



 **********************************************************************************************************************************
 DATASETS  * FILE   NREC   LENGTH (MB)   RECORD NAMES
              1      21       57.11       500      610      700      900      950      970     1000      129      960     1100   
                                          VAR    BASINP    GEOM    SYMINP    ZMAT    AOBASIS   BASIS     P2S    ABASIS      S 
                                         1400     1410     1200     1210     1080     1600     1650     1300     1700     1380   
                                           T        V       H0       H01     AOSYM     SMH    MOLCAS    ERIS     OPER     JKOP   
                                         7000   
                                        PAPT AO    

              2       5        0.87       700     1000      520     2100     7000   
                                         GEOM     BASIS   MCVARS     RHF     PAPT   

 PROGRAMS   *        TOTAL      PAPT    HF-SCF       INT
 CPU TIMES  *         4.48      2.28      0.74      1.32
 REAL TIME  *         6.36 SEC
 DISK USED  *       118.75 MB
 **********************************************************************************************************************************


 PROGRAM * MP4 (Closed-shell)     Authors: C. Hampel, H.-J. Werner, 1991, M. Deegan, P.J. Knowles, 1992


 Convergence thresholds:  THRVAR = 1.00D-08  THRDEN = 1.00D-06

 MP4(T)     terms to be evaluated (factor= 0.000)


 Number of core orbitals:           4 (   4 )
 Number of closed-shell orbitals:  12 (  12 )
 Number of external orbitals:      65 (  65 )

 Molecular orbitals read from record     7000.2  Type=PAPT/CANONICAL (state 1.1)

 Number of N-1 electron functions:              12
 Number of N-2 electron functions:              78
 Number of singly external CSFs:               780
 Number of doubly external CSFs:            304590
 Total number of CSFs:                      305371

 Length of J-op  integral file:               0.00 MB
 Length of K-op  integral file:               0.51 MB

 Memory could be reduced to 4.87 Mwords without degradation in triples

 Integral transformation finished. Total CPU:   0.30 sec, npass=  1  Memory used:   4.52 MW
 Orbital energies read from record       7000.2  Type=PAPT/CANONICAL (state 1.1)

 Reference energy:                   -207.99639760

                        CORR.ENERGY   TOTAL ENERGY   ENERGY CHANGE
 MP2:                   -0.64997471  -208.64637231    -0.64997471

 SCS-MP2 correlation energy:           -0.63968887   (PS=  1.200000  PT=  0.333333)
 SCS-MP2 total energy:               -208.63608646

 MP3(D):                -0.65023760  -208.64663520    -0.00026289
 MP4(DQ):               -0.64705205  -208.64344964     0.00318555
 MP4(SDQ):              -0.65308125  -208.64947885    -0.00602920

 Norm of t1 vector:      0.07197436      S-energy:    -0.00602920      T1 diagnostic:  0.01038860

 Largest off-diagonal element in interal  block of Fock matrix:  0.12D+00
 Largest off-diagonal element in external block of Fock matrix:  0.13D+00


 Total CPU time for triples:      4.48 sec


 RESULTS
 =======

  Reference energy                   -207.996397596892
  MP4(SDQ) singlet pair energy         -0.426060055804
  MP4(SDQ) triplet pair energy         -0.220991991153
  MP4(SDQ) correlation energy          -0.653081251738

  Triples contribution                 -0.021896738169
  Total correlation energy             -0.674977989907

  MP4(SDQ) total energy              -208.649478848630
 !MP4(SDTQ) total energy             -208.671375586799

 Timing summary (sec):

 STEP                 CPU(USER)    SYS     CPU(TOT)    WALL
 Transformation          0.37      0.08      0.45      0.63
 CCSD iterations         5.88      0.08      5.96      1.28
 Triples                 4.48      0.27      4.75      4.87

 Program statistics:

 Available memory in ccsd:               805305776
 Min. memory needed in ccsd:                882754
 Max. memory used in ccsd:                 1134352
 Max. memory used in cckext:               1119068 ( 1 integral passes)



 **********************************************************************************************************************************
 DATASETS  * FILE   NREC   LENGTH (MB)   RECORD NAMES
              1      22       69.88       500      610      700      900      950      970     1000      129      960     1100   
                                          VAR    BASINP    GEOM    SYMINP    ZMAT    AOBASIS   BASIS     P2S    ABASIS      S 
                                         1400     1410     1200     1210     1080     1600     1650     1300     1700     1380   
                                           T        V       H0       H01     AOSYM     SMH    MOLCAS    ERIS     OPER     JKOP   
                                         7000     1380(1)
                                        PAPT AO   JKOP   

              2       5        0.87       700     1000      520     2100     7000   
                                         GEOM     BASIS   MCVARS     RHF     PAPT   

 PROGRAMS   *        TOTAL       MP4      PAPT    HF-SCF       INT
 CPU TIMES  *        10.50      6.02      2.28      0.74      1.32
 REAL TIME  *        13.18 SEC
 DISK USED  *       118.75 MB
 **********************************************************************************************************************************

 Dump information in style XML to xml output                                                                      

 Orbitals will not be exported.

 **********************************************************************************************************************************

 MP4/cc-pVDZ energy=   -208.671375586799

             MP4            PAPT          HF-SCF
   -208.67137559   -208.64019008   -207.99639760
 **********************************************************************************************************************************
 Molpro calculation terminated
