
 Working directory              : /home/jovyan/scratch/molpro.gdj2Uqaflg/
 Global scratch directory       : /home/jovyan/scratch/molpro.gdj2Uqaflg/
 Wavefunction directory         : /home/jovyan/wfu/
 Main file repository           : /home/jovyan/scratch/molpro.gdj2Uqaflg/

 id        : cardiff

 Nodes                nprocs
 jupyter-c-2efrancisan    1
 GA implementation: MPI file
 GA implementation (serial work in mppx): MPI file

 Using customized tuning parameters: mindgm=1; mindgv=20; mindgc=4; mindgr=1; noblas=0; minvec=7
 default implementation of scratch files=df  


 Variables initialized (1031), CPU time= 0.00 sec
 
 
 
 geometry={
 16
  C    -1.4595330   -1.1910594    0.1600327
  C    -2.8488073   -0.9628516    0.0993153
  C    -3.1539559    0.3260872   -0.2060017
  S    -1.7497644    1.2592017   -0.4444530
  C    -0.7185117   -0.0716168   -0.1000887
  C     0.7185117    0.0716168   -0.1000887
  S     1.7497644   -1.2592017   -0.4444530
  C     3.1539559   -0.3260872   -0.2060017
  C     2.8488073    0.9628516    0.0993153
  C     1.4595330    1.1910594    0.1600327
  H    -1.0099655   -2.1339875    0.4228504
  H    -3.5907346   -1.7189217    0.2898715
  H    -4.1235319    0.7747989   -0.3122418
  H     4.1235319   -0.7747989   -0.3122418
  H     3.5907346    1.7189217    0.2898715
  H     1.0099655    2.1339875    0.4228504
 }
 basis=cc-pVDZ
 angstrom
 
 
 hf; mp4
 
 
 
 {put,xml;noorbitals,nobasis}
 Commands initialized (841), CPU time= 0.01 sec, 704 directives.
 Default parameters read. Elapsed time= 0.08 sec

 Checking input...
 Passed
1


                                         ***  PROGRAM SYSTEM MOLPRO  ***
                                       Copyright, TTI GmbH Stuttgart, 2015
                                    Version 2023.1 linked Mon Jun  5 13:27:10 2023


 **********************************************************************************************************************************
 LABEL *                                                                                                                                                                 
  (16 PROC) 64 bit serial version                                                        DATE: 03-Aug-23          TIME: 13:52:48  
 **********************************************************************************************************************************

 SHA1:             9738a14712571edd23541b6d7c4f3a3d766f8287
 **********************************************************************************************************************************

 Memory per process:       805 MW
 Total memory per node:   1074 MW
 Total GA space:           268 MW

 GA preallocation disabled
 GA check enabled

 Geometry recognized as XYZ


 Variable memory set to 805.3 MW

 SETTING BASIS          =    CC-PVDZ


 Recomputing integrals since basis changed


 Using spherical harmonics

 Library entry C      S cc-pVDZ              selected for orbital group  1
 Library entry C      P cc-pVDZ              selected for orbital group  1
 Library entry C      D cc-pVDZ              selected for orbital group  1
 Library entry S      S cc-pVDZ              selected for orbital group  2
 Library entry S      P cc-pVDZ              selected for orbital group  2
 Library entry S      D cc-pVDZ              selected for orbital group  2
 Library entry H      S cc-pVDZ              selected for orbital group  4
 Library entry H      P cc-pVDZ              selected for orbital group  4


 PROGRAM * SEWARD (Integral evaluation for generally contracted gaussian basis sets)     Author: Roland Lindh, 1990

 Geometry written to block  1 of record 700


 Point group  C2  



 ATOMIC COORDINATES

 NR  ATOM    CHARGE       X              Y              Z

   1  C       6.00   -2.758117640   -2.250776064    0.302417974
   2  C       6.00    2.758117640    2.250776064    0.302417974
   3  C       6.00   -5.383465579   -1.819525823    0.187678717
   4  C       6.00    5.383465579    1.819525823    0.187678717
   5  C       6.00   -5.960112860    0.616215501   -0.389286794
   6  C       6.00    5.960112860   -0.616215501   -0.389286794
   7  S      16.00   -3.306575499    2.379546349   -0.839894445
   8  S      16.00    3.306575499   -2.379546349   -0.839894445
   9  C       6.00   -1.357790330   -0.135336138   -0.189140231
  10  C       6.00    1.357790330    0.135336138   -0.189140231
  11  H       1.00   -1.908558190   -4.032651928    0.799071448
  12  H       1.00    1.908558190    4.032651928    0.799071448
  13  H       1.00   -6.785504980   -3.248291243    0.547777746
  14  H       1.00    6.785504980    3.248291243    0.547777746
  15  H       1.00   -7.792345957    1.464157723   -0.590051487
  16  H       1.00    7.792345957   -1.464157723   -0.590051487

 Bond lengths in Bohr (Angstrom)

  1- 3  2.663004632   1- 9  2.584111477   1-11  2.035558284   2- 4  2.663004632   2-10  2.584111477
       ( 1.409201364)       ( 1.367452904)       ( 1.077171055)       ( 1.409201364)       ( 1.367452904)

  2-12  2.035558284   3- 5  2.568705332   3-13  2.033901772   4- 6  2.568705332   4-14  2.033901772
       ( 1.077171055)       ( 1.359300323)       ( 1.076294467)       ( 1.359300323)       ( 1.076294467)

  5- 7  3.217707796   5-15  2.028889005   6- 8  3.217707796   6-16  2.028889005   7- 9  3.247441855
       ( 1.702737637)       ( 1.073641825)       ( 1.702737637)       ( 1.073641825)       ( 1.718472223)

  8-10  3.247441855   9-10  2.729036791
       ( 1.718472223)       ( 1.444144077)

 Bond angles

  1- 3- 5  112.61589754   1- 3-13  123.93134747   1- 9- 7  110.29731696   1- 9-10  128.34688330

  2- 4- 6  112.61589754   2- 4-14  123.93134747   2-10- 8  110.29731696   2-10- 9  128.34688330

  3- 1- 9  113.17056137   3- 1-11  124.31411267   3- 5- 7  111.46714242   3- 5-15  128.40798942

  4- 2-10  113.17056137   4- 2-12  124.31411267   4- 6- 8  111.46714242   4- 6-16  128.40798942

  5- 3-13  123.44470076   5- 7- 9   92.43181715   6- 4-14  123.44470076   6- 8-10   92.43181715

  7- 5-15  120.12213301   7- 9-10  121.35444924   8- 6-16  120.12213301   8-10- 9  121.35444924

  9- 1-11  122.46990442  10- 2-12  122.46990442

 NUCLEAR CHARGE:                   86
 NUMBER OF PRIMITIVE AOS:         342
 NUMBER OF SYMMETRY AOS:          332
 NUMBER OF CONTRACTIONS:          178   (   89A   +   89B   )
 NUMBER OF INNER CORE ORBITALS:     2   (    1A   +    1B   )
 NUMBER OF OUTER CORE ORBITALS:    16   (    8A   +    8B   )
 NUMBER OF VALENCE ORBITALS:       46   (   23A   +   23B   )


 NUCLEAR REPULSION ENERGY  637.31599080

 Eigenvalues of metric

         1 0.474E-03 0.227E-02 0.291E-02 0.412E-02 0.105E-01 0.165E-01 0.186E-01 0.201E-01
         2 0.713E-03 0.883E-03 0.254E-02 0.412E-02 0.509E-02 0.120E-01 0.174E-01 0.194E-01


 Contracted 2-electron integrals neglected if value below      1.0D-11
 AO integral compression algorithm  1   Integral accuracy      1.0D-11

     303.563 MB (compressed) written to integral file ( 51.0%)


 NUMBER OF SORTED TWO-ELECTRON INTEGRALS:   64164105.     BUFFER LENGTH:  32768
 NUMBER OF SEGMENTS:   5  SEGMENT LENGTH:   15996036      RECORD LENGTH: 524288

 Memory used in sort:      16.55 MW

 SORT1 READ    74411824. AND WROTE    63687438. INTEGRALS IN    185 RECORDS. CPU TIME:     1.05 SEC, REAL TIME:     1.59 SEC
 SORT2 READ    63687438. AND WROTE    64164105. INTEGRALS IN   1158 RECORDS. CPU TIME:     1.45 SEC, REAL TIME:     1.92 SEC

 FILE SIZES:   FILE 1:   334.6 MBYTE,  FILE 4:   776.0 MBYTE,   TOTAL:   1110.6 MBYTE

 OPERATOR DM      FOR CENTER  0  COORDINATES:    0.000000    0.000000    0.000000


 **********************************************************************************************************************************
 DATASETS  * FILE   NREC   LENGTH (MB)   RECORD NAMES
              1      19      287.04       500      610      700      900      950      970     1000      129      960     1100   
                                          VAR    BASINP    GEOM    SYMINP    ZMAT    AOBASIS   BASIS     P2S    ABASIS      S 
                                         1400     1410     1200     1210     1080     1600     1650     1300     1700   
                                           T        V       H0       H01     AOSYM     SMH    MOLCAS    ERIS     OPER   

 PROGRAMS   *        TOTAL       INT
 CPU TIMES  *        13.77     13.64
 REAL TIME  *        16.34 SEC
 DISK USED  *         1.03 GB
 **********************************************************************************************************************************


 Program * Restricted Hartree-Fock

 Orbital guess generated from atomic densities. Full valence occupancy:   32  32

 Initial occupancy:  22  21

 NELEC=   86   SYM=1   MS2= 0   THRE=1.0D-08   THRD=3.2D-06   THRG=3.2D-06  HFMA2=F  DIIS_START=2   DIIS_MAX=10   DIIS_INCORE=F

 Level shifts:    0.00 (CLOSED)    0.00 (OPEN)    0.30 (GAP_MIN)

 ITER           ETOT              DE          GRAD        DDIFF     DIIS  NEXP   TIME(IT)  TIME(TOT)  DIAG
   1    -1101.37220307   -1101.37220307     0.00D+00     0.14D+00     0     0       0.43      0.84    start
   2    -1101.46211738      -0.08991431     0.49D-02     0.13D-01     1     0       0.44      1.28    diag
   3    -1101.48412794      -0.02201056     0.26D-02     0.56D-02     2     0       0.41      1.69    diag
   4    -1101.48747904      -0.00335109     0.73D-03     0.22D-02     3     0       0.43      2.12    diag
   5    -1101.48779775      -0.00031871     0.23D-03     0.53D-03     4     0       0.43      2.55    diag
   6    -1101.48791633      -0.00011858     0.11D-03     0.32D-03     5     0       0.43      2.98    diag
   7    -1101.48794819      -0.00003187     0.46D-04     0.20D-03     6     0       0.41      3.39    diag
   8    -1101.48795172      -0.00000352     0.16D-04     0.72D-04     7     0       0.43      3.82    fixocc
   9    -1101.48795191      -0.00000019     0.46D-05     0.18D-04     8     0       0.42      4.24    diag
  10    -1101.48795192      -0.00000001     0.12D-05     0.40D-05     9     0       0.42      4.66    diag/orth
  11    -1101.48795192      -0.00000000     0.49D-06     0.16D-05     9     0       0.42      5.08    diag
  12    -1101.48795192      -0.00000000     0.16D-06     0.41D-06     0     0       0.43      5.51    diag

 Final occupancy:  22  21

 !RHF STATE 1.1 Energy              -1101.487951922312
  RHF One-electron energy           -2779.855261244194
  RHF Two-electron energy            1041.051318526461
  RHF Kinetic energy                 1101.766198472106
  RHF Nuclear energy                  637.315990795421
  RHF Virial quotient                  -0.999747454088

 !RHF STATE 1.1 Dipole moment           0.00000000     0.00000000     0.15849117
 Dipole moment /Debye                   0.00000000     0.00000000     0.40284438

 Orbital energies:

           1.1          2.1          3.1          4.1          5.1          6.1          7.1          8.1          9.1         10.1
    -91.980752   -11.276745   -11.264477   -11.242020   -11.240694    -8.985705    -6.667300    -6.666278    -6.664323    -1.202043

          11.1         12.1         13.1         14.1         15.1         16.1         17.1         18.1         19.1         20.1
     -1.039939    -0.986693    -0.810373    -0.745898    -0.707512    -0.574273    -0.557656    -0.545984    -0.512556    -0.466502

          21.1         22.1         23.1         24.1
     -0.373617    -0.347241     0.084451     0.188423

           1.2          2.2          3.2          4.2          5.2          6.2          7.2          8.2          9.2         10.2
    -91.980752   -11.275901   -11.264477   -11.242020   -11.240694    -8.985704    -6.667300    -6.666278    -6.664323    -1.172893

          11.2         12.2         13.2         14.2         15.2         16.2         17.2         18.2         19.2         20.2
     -1.001289    -0.954547    -0.779988    -0.718612    -0.646111    -0.570100    -0.555284    -0.514057    -0.481429    -0.351190

          21.2         22.2         23.2
     -0.284772     0.157222     0.183854


 HOMO     21.2    -0.284772 =      -7.7490eV
 LUMO     23.1     0.084451 =       2.2980eV
 LUMO-HOMO         0.369223 =      10.0471eV

 Orbitals saved in record  2100.2


 **********************************************************************************************************************************
 DATASETS  * FILE   NREC   LENGTH (MB)   RECORD NAMES
              1      19      287.04       500      610      700      900      950      970     1000      129      960     1100   
                                          VAR    BASINP    GEOM    SYMINP    ZMAT    AOBASIS   BASIS     P2S    ABASIS      S 
                                         1400     1410     1200     1210     1080     1600     1650     1300     1700   
                                           T        V       H0       H01     AOSYM     SMH    MOLCAS    ERIS     OPER   

              2       4        0.90       700     1000      520     2100   
                                         GEOM     BASIS   MCVARS     RHF  

 PROGRAMS   *        TOTAL    HF-SCF       INT
 CPU TIMES  *        19.29      5.52     13.64
 REAL TIME  *        22.74 SEC
 DISK USED  *         1.03 GB
 **********************************************************************************************************************************


 PROGRAM * MP4 (Closed-shell)     Authors: C. Hampel, H.-J. Werner, 1991, M. Deegan, P.J. Knowles, 1992


 Convergence thresholds:  THRVAR = 1.00D-08  THRDEN = 1.00D-06

 MP4(T)     terms to be evaluated (factor= 0.000)


 Number of core orbitals:          18 (   9   9 )
 Number of closed-shell orbitals:  25 (  13  12 )
 Number of external orbitals:     135 (  67  68 )

 Molecular orbitals read from record     2100.2  Type=RHF/CANONICAL  

 Number of N-1 electron functions:              25
 Number of N-2 electron functions:             325
 Number of singly external CSFs:              1687
 Number of doubly external CSFs:           2849344
 Total number of CSFs:                     2851032

 Length of J-op  integral file:               0.00 MB
 Length of K-op  integral file:               1.15 MB

 Memory could be reduced to 40.14 Mwords without degradation in triples

 Integral transformation finished. Total CPU:   8.26 sec, npass=  1  Memory used:  33.15 MW

 Reference energy:                  -1101.48795192

                        CORR.ENERGY   TOTAL ENERGY   ENERGY CHANGE
 MP2:                   -1.31344278 -1102.80139470    -1.31344278

 SCS-MP2 correlation energy:           -1.26390761   (PS=  1.200000  PT=  0.333333)
 SCS-MP2 total energy:              -1102.75185953

 MP3(D):                -1.35156694 -1102.83951886    -0.03812416
 MP4(DQ):               -1.35052507 -1102.83847699     0.00104187
 MP4(SDQ):              -1.36249431 -1102.85044623    -0.01196924

 Norm of t1 vector:      0.10290639      S-energy:    -0.01196924      T1 diagnostic:  0.01029064


 Total CPU time for triples:    230.96 sec


 RESULTS
 =======

  Reference energy                  -1101.487951922311
  MP4(SDQ) singlet pair energy         -0.856721397056
  MP4(SDQ) triplet pair energy         -0.493803670432
  MP4(SDQ) correlation energy          -1.362494309335

  Triples contribution                 -0.069466647190
  Total correlation energy             -1.431960956526

  MP4(SDQ) total energy             -1102.850446231646
 !MP4(SDTQ) total energy            -1102.919912878837

 Timing summary (sec):

 STEP                 CPU(USER)    SYS     CPU(TOT)    WALL
 Transformation          8.46      0.50      8.96      9.76
 CCSD iterations        39.21      0.24     39.45     20.04
 Triples               230.96     11.30    242.26    244.35

 Program statistics:

 Available memory in ccsd:               805303846
 Min. memory needed in ccsd:               7139776
 Max. memory used in ccsd:                 9706982
 Max. memory used in cckext:              11159576 ( 1 integral passes)



 **********************************************************************************************************************************
 DATASETS  * FILE   NREC   LENGTH (MB)   RECORD NAMES
              1      20      464.52       500      610      700      900      950      970     1000      129      960     1100   
                                          VAR    BASINP    GEOM    SYMINP    ZMAT    AOBASIS   BASIS     P2S    ABASIS      S 
                                         1400     1410     1200     1210     1080     1600     1650     1300     1700     1380   
                                           T        V       H0       H01     AOSYM     SMH    MOLCAS    ERIS     OPER     JKOP   

              2       4        0.90       700     1000      520     2100   
                                         GEOM     BASIS   MCVARS     RHF  

 PROGRAMS   *        TOTAL       MP4    HF-SCF       INT
 CPU TIMES  *       278.38    259.09      5.52     13.64
 REAL TIME  *       296.95 SEC
 DISK USED  *         1.03 GB
 **********************************************************************************************************************************

 Dump information in style XML to xml output                                                                      

 Orbitals will not be exported.

 **********************************************************************************************************************************

 MP4/cc-pVDZ energy=  -1102.919912878837

             MP4          HF-SCF
  -1102.91991288  -1101.48795192
 **********************************************************************************************************************************
 Molpro calculation terminated
