
 Working directory              : /home/jovyan/scratch/molpro.7QoLq8dxVW/
 Global scratch directory       : /home/jovyan/scratch/molpro.7QoLq8dxVW/
 Wavefunction directory         : /home/jovyan/wfu/
 Main file repository           : /home/jovyan/scratch/molpro.7QoLq8dxVW/

 id        : cardiff

 Nodes                nprocs
 jupyter-c-2efrancisan    1
 GA implementation: MPI file
 GA implementation (serial work in mppx): MPI file

 Using customized tuning parameters: mindgm=1; mindgv=20; mindgc=4; mindgr=1; noblas=0; minvec=7
 default implementation of scratch files=df  


 Variables initialized (1031), CPU time= 0.00 sec
 
 
 
 geometry={
 6
    H   -0.00632875311476     -0.04084783654691     -0.00818150755843
    N   0.99953758633452     -0.00230969538570     -0.00483617136550
    N   1.47739957561209      1.34271283967645      0.00556578747329
    H   0.71828264706118      2.00420913520683      0.00762829711197
    H   2.03340332052250      1.48238021094367     -0.82227125429861
    H   1.34770704304099     -0.45864761967431      0.82209606377530
 }
 basis=cc-pVTZ
 angstrom
 
 
 hf; ccsd(t)
 
 
 
 {put,xml;noorbitals,nobasis}
 Commands initialized (841), CPU time= 0.01 sec, 704 directives.
 Default parameters read. Elapsed time= 0.08 sec

 Checking input...
 Passed
1


                                         ***  PROGRAM SYSTEM MOLPRO  ***
                                       Copyright, TTI GmbH Stuttgart, 2015
                                    Version 2023.1 linked Mon Jun  5 13:27:10 2023


 **********************************************************************************************************************************
 LABEL *                                                                                                                                                                 
  (16 PROC) 64 bit serial version                                                        DATE: 04-Aug-23          TIME: 10:20:54  
 **********************************************************************************************************************************

 SHA1:             9738a14712571edd23541b6d7c4f3a3d766f8287
 **********************************************************************************************************************************

 Memory per process:       805 MW
 Total memory per node:   1074 MW
 Total GA space:           268 MW

 GA preallocation disabled
 GA check enabled

 Geometry recognized as XYZ


 Variable memory set to 805.3 MW

 SETTING BASIS          =    CC-PVTZ


 Recomputing integrals since basis changed


 Using spherical harmonics

 Library entry H      S cc-pVTZ              selected for orbital group  1
 Library entry H      P cc-pVTZ              selected for orbital group  1
 Library entry H      D cc-pVTZ              selected for orbital group  1
 Library entry N      S cc-pVTZ              selected for orbital group  2
 Library entry N      P cc-pVTZ              selected for orbital group  2
 Library entry N      D cc-pVTZ              selected for orbital group  2
 Library entry N      F cc-pVTZ              selected for orbital group  2


 PROGRAM * SEWARD (Integral evaluation for generally contracted gaussian basis sets)     Author: Roland Lindh, 1990

 Geometry written to block  1 of record 700


 Point group  C1  



 ATOMIC COORDINATES

 NR  ATOM    CHARGE       X              Y              Z

   1  H       1.00   -0.011959610   -0.077191224   -0.015460809
   2  N       7.00    1.888852289   -0.004364692   -0.009139039
   3  N       7.00    2.791880575    2.537359531    0.010517814
   4  H       1.00    1.357357483    3.787406362    0.014415392
   5  H       1.00    3.842575377    2.801292611   -1.553867471
   6  H       1.00    2.546797208   -0.866718389    1.553536409

 Bond lengths in Bohr (Angstrom)

 1-2  1.902217008  2-3  2.697444809  2-6  1.902235519  3-4  1.902758201  3-5  1.902871924
     ( 1.006609891)     ( 1.427426321)     ( 1.006619686)     ( 1.006896278)     ( 1.006956457)

 Bond angles

  1-2-3  111.75408110   1-2-6  109.32938766   2-3-4  111.51004522   2-3-5  108.03228513

  3-2-6  107.78157594   4-3-5  109.07747806

 NUCLEAR CHARGE:                   18
 NUMBER OF PRIMITIVE AOS:         162
 NUMBER OF SYMMETRY AOS:          148
 NUMBER OF CONTRACTIONS:          116   (  116A   )
 NUMBER OF INNER CORE ORBITALS:     0   (    0A   )
 NUMBER OF OUTER CORE ORBITALS:     2   (    2A   )
 NUMBER OF VALENCE ORBITALS:       12   (   12A   )


 NUCLEAR REPULSION ENERGY   41.75726498

 Eigenvalues of metric

         1 0.105E-02 0.191E-02 0.278E-02 0.318E-02 0.387E-02 0.467E-02 0.641E-02 0.792E-02


 Contracted 2-electron integrals neglected if value below      1.0D-11
 AO integral compression algorithm  1   Integral accuracy      1.0D-11

     112.198 MB (compressed) written to integral file ( 52.4%)


 NUMBER OF SORTED TWO-ELECTRON INTEGRALS:   23028291.     BUFFER LENGTH:  32768
 NUMBER OF SEGMENTS:   2  SEGMENT LENGTH:   15997996      RECORD LENGTH: 524288

 Memory used in sort:      16.56 MW

 SORT1 READ    26749923. AND WROTE    22798594. INTEGRALS IN     67 RECORDS. CPU TIME:     0.28 SEC, REAL TIME:     0.52 SEC
 SORT2 READ    22798594. AND WROTE    23028291. INTEGRALS IN    428 RECORDS. CPU TIME:     0.45 SEC, REAL TIME:     0.56 SEC

 FILE SIZES:   FILE 1:   142.8 MBYTE,  FILE 4:   281.1 MBYTE,   TOTAL:    423.9 MBYTE

 OPERATOR DM      FOR CENTER  0  COORDINATES:    0.000000    0.000000    0.000000


 **********************************************************************************************************************************
 DATASETS  * FILE   NREC   LENGTH (MB)   RECORD NAMES
              1      19      122.98       500      610      700      900      950      970     1000      129      960     1100   
                                          VAR    BASINP    GEOM    SYMINP    ZMAT    AOBASIS   BASIS     P2S    ABASIS      S 
                                         1400     1410     1200     1210     1080     1600     1650     1300     1700   
                                           T        V       H0       H01     AOSYM     SMH    MOLCAS    ERIS     OPER   

 PROGRAMS   *        TOTAL       INT
 CPU TIMES  *         2.70      2.57
 REAL TIME  *         6.85 SEC
 DISK USED  *       404.65 MB
 **********************************************************************************************************************************


 Program * Restricted Hartree-Fock

 Orbital guess generated from atomic densities. Full valence occupancy:   14

 Initial occupancy:   9

 NELEC=   18   SYM=1   MS2= 0   THRE=1.0D-08   THRD=3.2D-06   THRG=3.2D-06  HFMA2=F  DIIS_START=2   DIIS_MAX=10   DIIS_INCORE=F

 Level shifts:    0.00 (CLOSED)    0.00 (OPEN)    0.30 (GAP_MIN)

 ITER           ETOT              DE          GRAD        DDIFF     DIIS  NEXP   TIME(IT)  TIME(TOT)  DIAG
   1     -111.19618239    -111.19618239     0.00D+00     0.69D-01     0     0       0.23      0.45    start
   2     -111.21981010      -0.02362771     0.51D-02     0.70D-02     1     0       0.23      0.68    diag
   3     -111.22176305      -0.00195295     0.16D-02     0.17D-02     2     0       0.22      0.90    diag
   4     -111.22205780      -0.00029475     0.53D-03     0.57D-03     3     0       0.23      1.13    diag
   5     -111.22208027      -0.00002247     0.12D-03     0.15D-03     4     0       0.23      1.36    diag
   6     -111.22208190      -0.00000163     0.24D-04     0.44D-04     5     0       0.22      1.58    diag
   7     -111.22208208      -0.00000019     0.68D-05     0.17D-04     6     0       0.23      1.81    diag
   8     -111.22208211      -0.00000002     0.22D-05     0.63D-05     7     0       0.21      2.02    fixocc
   9     -111.22208211      -0.00000000     0.45D-06     0.13D-05     8     0       0.23      2.25    diag
  10     -111.22208211      -0.00000000     0.86D-07     0.13D-06     0     0       0.22      2.47    diag/orth

 Final occupancy:   9

 !RHF STATE 1.1 Energy               -111.222082105985
  RHF One-electron energy            -233.688963925527
  RHF Two-electron energy              80.709616834555
  RHF Kinetic energy                  111.111170541657
  RHF Nuclear energy                   41.757264984987
  RHF Virial quotient                  -1.000998203545

 !RHF STATE 1.1 Dipole moment          -0.52482912     0.18578266    -0.00128412
 Dipole moment /Debye                  -1.33398257     0.47221242    -0.00326391

 Orbital energies:

           1.1          2.1          3.1          4.1          5.1          6.1          7.1          8.1          9.1         10.1
    -15.558880   -15.558382    -1.251219    -1.006726    -0.693319    -0.636280    -0.608754    -0.454085    -0.367220     0.143340

          11.1
      0.169880


 HOMO      9.1    -0.367220 =      -9.9926eV
 LUMO     10.1     0.143340 =       3.9005eV
 LUMO-HOMO         0.510560 =      13.8930eV

 Orbitals saved in record  2100.2


 **********************************************************************************************************************************
 DATASETS  * FILE   NREC   LENGTH (MB)   RECORD NAMES
              1      19      122.98       500      610      700      900      950      970     1000      129      960     1100   
                                          VAR    BASINP    GEOM    SYMINP    ZMAT    AOBASIS   BASIS     P2S    ABASIS      S 
                                         1400     1410     1200     1210     1080     1600     1650     1300     1700   
                                           T        V       H0       H01     AOSYM     SMH    MOLCAS    ERIS     OPER   

              2       4        0.68       700     1000      520     2100   
                                         GEOM     BASIS   MCVARS     RHF  

 PROGRAMS   *        TOTAL    HF-SCF       INT
 CPU TIMES  *         5.18      2.48      2.57
 REAL TIME  *         9.73 SEC
 DISK USED  *       404.65 MB
 **********************************************************************************************************************************


 PROGRAM * CCSD (Closed-shell coupled cluster)     Authors: C. Hampel, H.-J. Werner, 1991, M. Deegan, P.J. Knowles, 1992


 Convergence thresholds:  THRVAR = 1.00D-08  THRDEN = 1.00D-06

 CCSD(T)     terms to be evaluated (factor= 1.000)


 Number of core orbitals:           2 (   2 )
 Number of closed-shell orbitals:   7 (   7 )
 Number of external orbitals:     107 ( 107 )

 Molecular orbitals read from record     2100.2  Type=RHF/CANONICAL  

 Number of N-1 electron functions:               7
 Number of N-2 electron functions:              28
 Number of singly external CSFs:               749
 Number of doubly external CSFs:            280875
 Total number of CSFs:                      281625

 Length of J-op  integral file:               0.00 MB
 Length of K-op  integral file:               0.99 MB
 Length of 3-ext integral record:             0.00 MB

 Memory could be reduced to 12.54 Mwords without degradation in triples

 Integral transformation finished. Total CPU:   0.79 sec, npass=  1  Memory used:   7.22 MW

 Reference energy:                   -111.22208211

 MP2 singlet pair energy:              -0.28516893
 MP2 triplet pair energy:              -0.15366875
 MP2 correlation energy:               -0.43883768
 MP2 total energy:                   -111.66091978

 SCS-MP2 correlation energy:           -0.43781882   (PS=  1.200000  PT=  0.333333)
 SCS-MP2 total energy:               -111.65990093

 ITER.      SQ.NORM     CORR.ENERGY   TOTAL ENERGY   ENERGY CHANGE        DEN1      VAR(S)    VAR(P)  DIIS     TIME  TIME/IT
   1      1.12481516    -0.45562895  -111.67771106    -0.01679128    -0.00702283  0.87D-03  0.18D-02  1  1     7.16     1.04
   2      1.13225002    -0.45695227  -111.67903438    -0.00132332    -0.00907819  0.23D-04  0.19D-03  2  2     8.12     1.07
   3      1.13470906    -0.45703679  -111.67911889    -0.00008452    -0.00176645  0.32D-05  0.10D-04  3  3     9.06     1.07
   4      1.13532755    -0.45706656  -111.67914867    -0.00002977    -0.00032033  0.44D-06  0.62D-06  4  4    10.00     1.07
   5      1.13542039    -0.45706705  -111.67914916    -0.00000049    -0.00003569  0.11D-06  0.53D-07  5  5    10.95     1.07
   6      1.13543671    -0.45706599  -111.67914810     0.00000106    -0.00000488  0.30D-07  0.59D-08  6  6    11.89     1.07
   7      1.13544057    -0.45706611  -111.67914821    -0.00000012    -0.00000072  0.79D-08  0.14D-08  6  1    12.84     1.07
   8      1.13544298    -0.45706622  -111.67914833    -0.00000011     0.00000051  0.10D-08  0.22D-09  6  2    13.79     1.07

 Norm of t1 vector:      0.03733273      S-energy:    -0.00000023      T1 diagnostic:  0.00705522
                                                                       D1 diagnostic:  0.01365033
                                                                       D2 diagnostic:  0.14348864 (internal)


 Total CPU time for triples:      9.99 sec


 RESULTS
 =======

  Reference energy                   -111.222082105985
  CCSD singlet pair energy             -0.317999970998
  CCSD triplet pair energy             -0.139066018005
  CCSD correlation energy              -0.457066221394

  Triples (T) contribution             -0.016190200013
  Total correlation energy             -0.473256421407

  CCSD total energy                  -111.679148327379
  CCSD[T] energy                     -111.695679666538
  CCSD-T energy                      -111.695134811573
 !CCSD(T) total energy               -111.695338527392

 Timing summary (sec):

 STEP                 CPU(USER)    SYS     CPU(TOT)    WALL
 Transformation          0.81      0.11      0.92      1.04
 CCSD iterations        13.00      0.54     13.54      8.57
 Triples                 9.99      0.24     10.23     10.33

 Program statistics:

 Available memory in ccsd:               805306163
 Min. memory needed in ccsd:                914097
 Max. memory used in ccsd:                 1141226
 Max. memory used in cckext:                867695 ( 8 integral passes)



 **********************************************************************************************************************************
 DATASETS  * FILE   NREC   LENGTH (MB)   RECORD NAMES
              1      20      160.53       500      610      700      900      950      970     1000      129      960     1100   
                                          VAR    BASINP    GEOM    SYMINP    ZMAT    AOBASIS   BASIS     P2S    ABASIS      S 
                                         1400     1410     1200     1210     1080     1600     1650     1300     1700     1380   
                                           T        V       H0       H01     AOSYM     SMH    MOLCAS    ERIS     OPER     JKOP   

              2       4        0.68       700     1000      520     2100   
                                         GEOM     BASIS   MCVARS     RHF  

 PROGRAMS   *        TOTAL   CCSD(T)    HF-SCF       INT
 CPU TIMES  *        23.58     18.39      2.48      2.57
 REAL TIME  *        29.72 SEC
 DISK USED  *       404.65 MB
 **********************************************************************************************************************************

 Dump information in style XML to xml output                                                                      

 Orbitals will not be exported.

 **********************************************************************************************************************************

 CCSD(T)/cc-pVTZ energy=   -111.695338527392

         CCSD(T)          HF-SCF
   -111.69533853   -111.22208211
 **********************************************************************************************************************************
 Molpro calculation terminated
