
 Working directory              : /home/jovyan/scratch/molpro.VW3Qg2V0Lm/
 Global scratch directory       : /home/jovyan/scratch/molpro.VW3Qg2V0Lm/
 Wavefunction directory         : /home/jovyan/wfu/
 Main file repository           : /home/jovyan/scratch/molpro.VW3Qg2V0Lm/

 id        : cardiff

 Nodes                nprocs
 jupyter-c-2efrancisan    1
 GA implementation: MPI file
 GA implementation (serial work in mppx): MPI file

 Using customized tuning parameters: mindgm=1; mindgv=20; mindgc=4; mindgr=1; noblas=0; minvec=7
 default implementation of scratch files=df  


 Variables initialized (1031), CPU time= 0.01 sec
 
 
 
 geometry={
 7
  C    -0.2143504    0.9533214    0.0000000
  N    -0.1118448   -0.5782992    0.0000000
  H     0.8108410   -1.0328730    0.0000000
  H    -0.6149312   -0.9202851    0.8074929
  H    -0.6149312   -0.9202851   -0.8074929
  H     0.3726083    1.2492105    0.8729349
  H     0.3726083    1.2492105   -0.8729349
 }
 basis=cc-pVTZ
 angstrom
 
 
 hf; ccsd
 
 
 
 {put,xml;noorbitals,nobasis}
 Commands initialized (841), CPU time= 0.01 sec, 704 directives.
 Default parameters read. Elapsed time= 0.08 sec

 Checking input...
 Passed
1


                                         ***  PROGRAM SYSTEM MOLPRO  ***
                                       Copyright, TTI GmbH Stuttgart, 2015
                                    Version 2023.1 linked Mon Jun  5 13:27:10 2023


 **********************************************************************************************************************************
 LABEL *                                                                                                                                                                 
  (16 PROC) 64 bit serial version                                                        DATE: 02-Aug-23          TIME: 15:46:03  
 **********************************************************************************************************************************

 SHA1:             9738a14712571edd23541b6d7c4f3a3d766f8287
 **********************************************************************************************************************************

 Memory per process:       805 MW
 Total memory per node:   1074 MW
 Total GA space:           268 MW

 GA preallocation disabled
 GA check enabled

 Geometry recognized as XYZ


 Variable memory set to 805.3 MW

 SETTING BASIS          =    CC-PVTZ


 Recomputing integrals since basis changed


 Using spherical harmonics

 Library entry C      S cc-pVTZ              selected for orbital group  1
 Library entry C      P cc-pVTZ              selected for orbital group  1
 Library entry C      D cc-pVTZ              selected for orbital group  1
 Library entry C      F cc-pVTZ              selected for orbital group  1
 Library entry N      S cc-pVTZ              selected for orbital group  2
 Library entry N      P cc-pVTZ              selected for orbital group  2
 Library entry N      D cc-pVTZ              selected for orbital group  2
 Library entry N      F cc-pVTZ              selected for orbital group  2
 Library entry H      S cc-pVTZ              selected for orbital group  3
 Library entry H      P cc-pVTZ              selected for orbital group  3
 Library entry H      D cc-pVTZ              selected for orbital group  3


 PROGRAM * SEWARD (Integral evaluation for generally contracted gaussian basis sets)     Author: Roland Lindh, 1990

 Geometry written to block  1 of record 700


 Point group  Cs  



 ATOMIC COORDINATES

 NR  ATOM    CHARGE       X              Y              Z

   1  C       6.00   -0.405063551    1.801516355    0.000000000
   2  N       7.00   -0.211356040   -1.092827106    0.000000000
   3  H       1.00    1.532267421   -1.951847092    0.000000000
   4  H       1.00   -1.162051553   -1.739086796    1.525940429
   5  H       1.00   -1.162051553   -1.739086796   -1.525940429
   6  H       1.00    0.704127639    2.360665717    1.649607886
   7  H       1.00    0.704127639    2.360665717   -1.649607886

 Bond lengths in Bohr (Angstrom)

 1-2  2.900818276  1-6  2.064984087  1-7  2.064984087  2-3  1.943743324  2-4  1.910488874
     ( 1.535046924)     ( 1.092742520)     ( 1.092742520)     ( 1.028584671)     ( 1.010987174)

 2-5  1.910488874
     ( 1.010987174)

 Bond angles

  1-2-3  120.05667508   1-2-4  107.71514152   1-2-5  107.71514152   2-1-6  103.55057035

  2-1-7  103.55057035   3-2-4  107.27096932   3-2-5  107.27096932   4-2-5  106.01556643

  6-1-7  106.04042148

 NUCLEAR CHARGE:                   18
 NUMBER OF PRIMITIVE AOS:         179
 NUMBER OF SYMMETRY AOS:          164
 NUMBER OF CONTRACTIONS:          130   (   78A'  +   52A"  )
 NUMBER OF INNER CORE ORBITALS:     0   (    0A'  +    0A"  )
 NUMBER OF OUTER CORE ORBITALS:     2   (    2A'  +    0A"  )
 NUMBER OF VALENCE ORBITALS:       13   (    9A'  +    4A"  )


 NUCLEAR REPULSION ENERGY   41.75965206

 Eigenvalues of metric

         1 0.120E-02 0.140E-02 0.236E-02 0.274E-02 0.414E-02 0.560E-02 0.809E-02 0.109E-01
         2 0.178E-02 0.279E-02 0.786E-02 0.107E-01 0.219E-01 0.297E-01 0.351E-01 0.423E-01


 Contracted 2-electron integrals neglected if value below      1.0D-11
 AO integral compression algorithm  1   Integral accuracy      1.0D-11

     93.848 MB (compressed) written to integral file ( 53.0%)


 NUMBER OF SORTED TWO-ELECTRON INTEGRALS:   18434806.     BUFFER LENGTH:  32768
 NUMBER OF SEGMENTS:   2  SEGMENT LENGTH:   15994654      RECORD LENGTH: 524288

 Memory used in sort:      16.55 MW

 SORT1 READ    22165393. AND WROTE    18266279. INTEGRALS IN     53 RECORDS. CPU TIME:     0.28 SEC, REAL TIME:     0.86 SEC
 SORT2 READ    18266279. AND WROTE    18434806. INTEGRALS IN    358 RECORDS. CPU TIME:     0.48 SEC, REAL TIME:     0.60 SEC

 FILE SIZES:   FILE 1:   124.4 MBYTE,  FILE 4:   222.4 MBYTE,   TOTAL:    346.8 MBYTE

 OPERATOR DM      FOR CENTER  0  COORDINATES:    0.000000    0.000000    0.000000


 **********************************************************************************************************************************
 DATASETS  * FILE   NREC   LENGTH (MB)   RECORD NAMES
              1      19      105.23       500      610      700      900      950      970     1000      129      960     1100   
                                          VAR    BASINP    GEOM    SYMINP    ZMAT    AOBASIS   BASIS     P2S    ABASIS      S 
                                         1400     1410     1200     1210     1080     1600     1650     1300     1700   
                                           T        V       H0       H01     AOSYM     SMH    MOLCAS    ERIS     OPER   

 PROGRAMS   *        TOTAL       INT
 CPU TIMES  *         3.33      3.20
 REAL TIME  *         5.37 SEC
 DISK USED  *       331.14 MB
 **********************************************************************************************************************************


 Program * Restricted Hartree-Fock

 Orbital guess generated from atomic densities. Full valence occupancy:   11   4

 Initial occupancy:   7   2

 NELEC=   18   SYM=1   MS2= 0   THRE=1.0D-08   THRD=3.2D-06   THRG=3.2D-06  HFMA2=F  DIIS_START=2   DIIS_MAX=10   DIIS_INCORE=F

 Level shifts:    0.00 (CLOSED)    0.00 (OPEN)    0.30 (GAP_MIN)

 ITER           ETOT              DE          GRAD        DDIFF     DIIS  NEXP   TIME(IT)  TIME(TOT)  DIAG
   1      -95.07230288     -95.07230288     0.00D+00     0.86D-01     0     0       0.12      0.25    start
   2      -95.13340839      -0.06110551     0.97D-02     0.13D-01     1     0       0.13      0.38    diag
   3      -95.14498566      -0.01157727     0.45D-02     0.46D-02     2     0       0.13      0.51    diag
   4      -95.14581795      -0.00083228     0.87D-03     0.11D-02     3     0       0.12      0.63    diag
   5      -95.14590516      -0.00008722     0.25D-03     0.39D-03     4     0       0.13      0.76    diag
   6      -95.14591676      -0.00001160     0.93D-04     0.16D-03     5     0       0.13      0.89    diag
   7      -95.14591850      -0.00000174     0.32D-04     0.66D-04     6     0       0.13      1.02    diag
   8      -95.14591872      -0.00000022     0.85D-05     0.27D-04     7     0       0.13      1.15    fixocc
   9      -95.14591874      -0.00000002     0.22D-05     0.72D-05     8     0       0.13      1.28    diag
  10      -95.14591874      -0.00000000     0.61D-06     0.22D-05     9     0       0.13      1.41    diag/orth
  11      -95.14591874      -0.00000000     0.15D-06     0.35D-06     0     0       0.12      1.53    diag

 Final occupancy:   7   2

 !RHF STATE 1.1 Energy                -95.145918740022
  RHF One-electron energy            -210.421815924503
  RHF Two-electron energy              73.516245126471
  RHF Kinetic energy                   95.081535563319
  RHF Nuclear energy                   41.759652058010
  RHF Virial quotient                  -1.000677136484

 !RHF STATE 1.1 Dipole moment           0.61318360    -2.10942790     0.00000000
 Dipole moment /Debye                   1.55855726    -5.36163092     0.00000000

 Orbital energies:

           1.1          2.1          3.1          4.1          5.1          6.1          7.1          8.1          9.1
    -15.660336   -11.155631    -1.268665    -0.851802    -0.730271    -0.557702    -0.263977     0.101968     0.170321

           1.2          2.2          3.2          4.2
     -0.736186    -0.470094     0.174307     0.257469


 HOMO      7.1    -0.263977 =      -7.1832eV
 LUMO      8.1     0.101968 =       2.7747eV
 LUMO-HOMO         0.365945 =       9.9579eV

 Orbitals saved in record  2100.2


 **********************************************************************************************************************************
 DATASETS  * FILE   NREC   LENGTH (MB)   RECORD NAMES
              1      19      105.23       500      610      700      900      950      970     1000      129      960     1100   
                                          VAR    BASINP    GEOM    SYMINP    ZMAT    AOBASIS   BASIS     P2S    ABASIS      S 
                                         1400     1410     1200     1210     1080     1600     1650     1300     1700   
                                           T        V       H0       H01     AOSYM     SMH    MOLCAS    ERIS     OPER   

              2       4        0.63       700     1000      520     2100   
                                         GEOM     BASIS   MCVARS     RHF  

 PROGRAMS   *        TOTAL    HF-SCF       INT
 CPU TIMES  *         4.87      1.54      3.20
 REAL TIME  *         7.22 SEC
 DISK USED  *       331.14 MB
 **********************************************************************************************************************************


 PROGRAM * CCSD (Closed-shell coupled cluster)     Authors: C. Hampel, H.-J. Werner, 1991, M. Deegan, P.J. Knowles, 1992


 Convergence thresholds:  THRVAR = 1.00D-08  THRDEN = 1.00D-06

 Number of core orbitals:           2 (   2   0 )
 Number of closed-shell orbitals:   7 (   5   2 )
 Number of external orbitals:     121 (  71  50 )

 Molecular orbitals read from record     2100.2  Type=RHF/CANONICAL  

 Number of N-1 electron functions:               7
 Number of N-2 electron functions:              28
 Number of singly external CSFs:               455
 Number of doubly external CSFs:            180768
 Total number of CSFs:                      181224

 Length of J-op  integral file:               0.00 MB
 Length of K-op  integral file:               0.67 MB
 Length of 3-ext integral record:             0.00 MB

 Integral transformation finished. Total CPU:   0.55 sec, npass=  1  Memory used:   3.20 MW

 Reference energy:                    -95.14591874

 MP2 singlet pair energy:              -0.27264331
 MP2 triplet pair energy:              -0.13393762
 MP2 correlation energy:               -0.40658094
 MP2 total energy:                    -95.55249968

 SCS-MP2 correlation energy:           -0.41051094   (PS=  1.200000  PT=  0.333333)
 SCS-MP2 total energy:                -95.55642968

 ITER.      SQ.NORM     CORR.ENERGY   TOTAL ENERGY   ENERGY CHANGE        DEN1      VAR(S)    VAR(P)  DIIS     TIME  TIME/IT
   1      1.13195263    -0.42939016   -95.57530890    -0.02280922    -0.01283054  0.10D-02  0.19D-02  1  1     6.27     0.59
   2      1.14108758    -0.43109587   -95.57701461    -0.00170572    -0.00958634  0.30D-04  0.21D-03  2  2     6.77     0.57
   3      1.14406039    -0.43119908   -95.57711782    -0.00010321    -0.00182412  0.11D-04  0.13D-04  3  3     7.27     0.57
   4      1.14491155    -0.43123245   -95.57715119    -0.00003337    -0.00033837  0.26D-05  0.14D-05  4  4     7.77     0.57
   5      1.14512807    -0.43123570   -95.57715444    -0.00000325    -0.00005373  0.14D-05  0.23D-06  5  5     8.28     0.56
   6      1.14523821    -0.43123504   -95.57715378     0.00000066    -0.00001500  0.51D-06  0.78D-07  6  6     8.77     0.56
   7      1.14531361    -0.43123527   -95.57715401    -0.00000023    -0.00000352  0.13D-06  0.19D-07  6  2     9.25     0.56
   8      1.14536031    -0.43123510   -95.57715384     0.00000017    -0.00000233  0.17D-07  0.30D-08  6  1     9.74     0.55
   9      1.14537398    -0.43123492   -95.57715366     0.00000018    -0.00000107  0.36D-08  0.60D-09  6  3    10.24     0.55

 Norm of t1 vector:      0.04721374      S-energy:     0.00000042      T1 diagnostic:  0.00892256
                                                                       D1 diagnostic:  0.02141717
                                                                       D2 diagnostic:  0.15255233 (internal)


 RESULTS
 =======

  Reference energy                    -95.145918740022
  CCSD singlet pair energy             -0.307687441894
  CCSD triplet pair energy             -0.123547895631
  CCSD correlation energy              -0.431234920372

 !CCSD total energy                   -95.577153660394

 Timing summary (sec):

 STEP                 CPU(USER)    SYS     CPU(TOT)    WALL
 Transformation          0.56      0.07      0.63      0.80
 CCSD iterations         9.69      0.39     10.08      5.01

 Program statistics:

 Available memory in ccsd:               805306165
 Min. memory needed in ccsd:                588967
 Max. memory used in ccsd:                  735996
 Max. memory used in cckext:                881519 ( 9 integral passes)



 **********************************************************************************************************************************
 DATASETS  * FILE   NREC   LENGTH (MB)   RECORD NAMES
              1      20      132.03       500      610      700      900      950      970     1000      129      960     1100   
                                          VAR    BASINP    GEOM    SYMINP    ZMAT    AOBASIS   BASIS     P2S    ABASIS      S 
                                         1400     1410     1200     1210     1080     1600     1650     1300     1700     1380   
                                           T        V       H0       H01     AOSYM     SMH    MOLCAS    ERIS     OPER     JKOP   

              2       4        0.63       700     1000      520     2100   
                                         GEOM     BASIS   MCVARS     RHF  

 PROGRAMS   *        TOTAL      CCSD    HF-SCF       INT
 CPU TIMES  *         9.94      5.07      1.54      3.20
 REAL TIME  *        13.09 SEC
 DISK USED  *       331.14 MB
 **********************************************************************************************************************************

 Dump information in style XML to xml output                                                                      

 Orbitals will not be exported.

 **********************************************************************************************************************************

 CCSD/cc-pVTZ energy=    -95.577153660394

            CCSD          HF-SCF
    -95.57715366    -95.14591874
 **********************************************************************************************************************************
 Molpro calculation terminated
