
 Working directory              : /home/jovyan/scratch/molpro.bAWYki8HuF/
 Global scratch directory       : /home/jovyan/scratch/molpro.bAWYki8HuF/
 Wavefunction directory         : /home/jovyan/wfu/
 Main file repository           : /home/jovyan/scratch/molpro.bAWYki8HuF/

 id        : cardiff

 Nodes                nprocs
 jupyter-c-2efrancisan    1
 GA implementation: MPI file
 GA implementation (serial work in mppx): MPI file

 Using customized tuning parameters: mindgm=1; mindgv=20; mindgc=4; mindgr=1; noblas=0; minvec=7
 default implementation of scratch files=df  


 Variables initialized (1031), CPU time= 0.00 sec
 
 
 
 geometry={
 5
  N    -0.3896245   -0.4975700    0.0000000
  O    -0.3776717    0.9154097    0.0000000
  H     0.1141459   -0.8133419    0.8207146
  H     0.1141459   -0.8133419   -0.8207146
  H     0.5390043    1.2088440    0.0000000
 }
 basis=cc-pVDZ
 angstrom
 
 
 hf; mp4
 
 
 
 {put,xml;noorbitals,nobasis}
 Commands initialized (841), CPU time= 0.01 sec, 704 directives.
 Default parameters read. Elapsed time= 0.08 sec

 Checking input...
 Passed
1


                                         ***  PROGRAM SYSTEM MOLPRO  ***
                                       Copyright, TTI GmbH Stuttgart, 2015
                                    Version 2023.1 linked Mon Jun  5 13:27:10 2023


 **********************************************************************************************************************************
 LABEL *                                                                                                                                                                 
  (16 PROC) 64 bit serial version                                                        DATE: 03-Aug-23          TIME: 14:00:28  
 **********************************************************************************************************************************

 SHA1:             9738a14712571edd23541b6d7c4f3a3d766f8287
 **********************************************************************************************************************************

 Memory per process:       805 MW
 Total memory per node:   1074 MW
 Total GA space:           268 MW

 GA preallocation disabled
 GA check enabled

 Geometry recognized as XYZ


 Variable memory set to 805.3 MW

 SETTING BASIS          =    CC-PVDZ


 Recomputing integrals since basis changed


 Using spherical harmonics

 Library entry N      S cc-pVDZ              selected for orbital group  1
 Library entry N      P cc-pVDZ              selected for orbital group  1
 Library entry N      D cc-pVDZ              selected for orbital group  1
 Library entry O      S cc-pVDZ              selected for orbital group  2
 Library entry O      P cc-pVDZ              selected for orbital group  2
 Library entry O      D cc-pVDZ              selected for orbital group  2
 Library entry H      S cc-pVDZ              selected for orbital group  3
 Library entry H      P cc-pVDZ              selected for orbital group  3


 PROGRAM * SEWARD (Integral evaluation for generally contracted gaussian basis sets)     Author: Roland Lindh, 1990

 Geometry written to block  1 of record 700


 Point group  Cs  



 ATOMIC COORDINATES

 NR  ATOM    CHARGE       X              Y              Z

   1  N       7.00   -0.736283596   -0.940271028    0.000000000
   2  O       8.00   -0.713696078    1.729873625    0.000000000
   3  H       1.00    0.215704489   -1.536993437    1.550925820
   4  H       1.00    0.215704489   -1.536993437   -1.550925820
   5  H       1.00    1.018570507    2.284384087    0.000000000

 Bond lengths in Bohr (Angstrom)

 1-2  2.670240188  1-3  1.915131810  1-4  1.915131810  2-5  1.818853863
     ( 1.413030255)     ( 1.013444110)     ( 1.013444110)     ( 0.962496014)

 Bond angles

  1-2-5  108.23489657   2-1-3  107.90062162   2-1-4  107.90062162   3-1-4  108.15810256

 NUCLEAR CHARGE:                   18
 NUMBER OF PRIMITIVE AOS:          75
 NUMBER OF SYMMETRY AOS:           73
 NUMBER OF CONTRACTIONS:           43   (   29A'  +   14A"  )
 NUMBER OF INNER CORE ORBITALS:     0   (    0A'  +    0A"  )
 NUMBER OF OUTER CORE ORBITALS:     2   (    2A'  +    0A"  )
 NUMBER OF VALENCE ORBITALS:       11   (    8A'  +    3A"  )


 NUCLEAR REPULSION ENERGY   39.67072628

 Eigenvalues of metric

         1 0.940E-02 0.224E-01 0.395E-01 0.450E-01 0.694E-01 0.131E+00 0.136E+00 0.155E+00
         2 0.379E-01 0.752E-01 0.137E+00 0.186E+00 0.500E+00 0.569E+00 0.643E+00 0.954E+00


 Contracted 2-electron integrals neglected if value below      1.0D-11
 AO integral compression algorithm  1   Integral accuracy      1.0D-11

     1.573 MB (compressed) written to integral file ( 65.0%)


 NUMBER OF SORTED TWO-ELECTRON INTEGRALS:     237420.     BUFFER LENGTH:  32768
 NUMBER OF SEGMENTS:   1  SEGMENT LENGTH:     237420      RECORD LENGTH: 524288

 Memory used in sort:       0.79 MW

 SORT1 READ      297296. AND WROTE      232046. INTEGRALS IN      1 RECORDS. CPU TIME:     0.00 SEC, REAL TIME:     0.01 SEC
 SORT2 READ      232046. AND WROTE      237420. INTEGRALS IN      6 RECORDS. CPU TIME:     0.02 SEC, REAL TIME:     0.02 SEC

 FILE SIZES:   FILE 1:    31.7 MBYTE,  FILE 4:     4.3 MBYTE,   TOTAL:     35.9 MBYTE

 OPERATOR DM      FOR CENTER  0  COORDINATES:    0.000000    0.000000    0.000000


 **********************************************************************************************************************************
 DATASETS  * FILE   NREC   LENGTH (MB)   RECORD NAMES
              1      19       29.78       500      610      700      900      950      970     1000      129      960     1100   
                                          VAR    BASINP    GEOM    SYMINP    ZMAT    AOBASIS   BASIS     P2S    ABASIS      S 
                                         1400     1410     1200     1210     1080     1600     1650     1300     1700   
                                           T        V       H0       H01     AOSYM     SMH    MOLCAS    ERIS     OPER   

 PROGRAMS   *        TOTAL       INT
 CPU TIMES  *         0.60      0.47
 REAL TIME  *         1.68 SEC
 DISK USED  *        34.66 MB
 **********************************************************************************************************************************


 Program * Restricted Hartree-Fock

 Orbital guess generated from atomic densities. Full valence occupancy:   10   3

 Initial occupancy:   7   2

 NELEC=   18   SYM=1   MS2= 0   THRE=1.0D-08   THRD=3.2D-06   THRG=3.2D-06  HFMA2=F  DIIS_START=2   DIIS_MAX=10   DIIS_INCORE=F

 Level shifts:    0.00 (CLOSED)    0.00 (OPEN)    0.30 (GAP_MIN)

 ITER           ETOT              DE          GRAD        DDIFF     DIIS  NEXP   TIME(IT)  TIME(TOT)  DIAG
   1     -130.95565478    -130.95565478     0.00D+00     0.24D+00     0     0       0.00      0.00    start
   2     -130.98636601      -0.03071124     0.14D-01     0.30D-01     1     0       0.01      0.01    diag
   3     -130.98988469      -0.00351868     0.54D-02     0.80D-02     2     0       0.00      0.01    diag
   4     -130.99029036      -0.00040567     0.16D-02     0.26D-02     3     0       0.00      0.01    diag
   5     -130.99032320      -0.00003284     0.38D-03     0.79D-03     4     0       0.00      0.01    diag
   6     -130.99032500      -0.00000179     0.76D-04     0.17D-03     5     0       0.00      0.01    diag
   7     -130.99032530      -0.00000031     0.30D-04     0.70D-04     6     0       0.01      0.02    diag
   8     -130.99032533      -0.00000003     0.66D-05     0.24D-04     7     0       0.00      0.02    fixocc
   9     -130.99032533      -0.00000000     0.13D-05     0.50D-05     8     0       0.00      0.02    diag
  10     -130.99032533      -0.00000000     0.30D-06     0.11D-05     9     0       0.01      0.03    diag/orth
  11     -130.99032533      -0.00000000     0.80D-07     0.16D-06     0     0       0.00      0.03    diag

 Final occupancy:   7   2

 !RHF STATE 1.1 Energy               -130.990325329015
  RHF One-electron energy            -258.284413296868
  RHF Two-electron energy              87.623361683097
  RHF Kinetic energy                  130.904908949179
  RHF Nuclear energy                   39.670726284755
  RHF Virial quotient                  -1.000652507080

 !RHF STATE 1.1 Dipole moment           1.26108352    -0.29856201     0.00000000
 Dipole moment /Debye                   3.20535458    -0.75886893     0.00000000

 Orbital energies:

           1.1          2.1          3.1          4.1          5.1          6.1          7.1          8.1          9.1
    -20.580924   -15.601375    -1.397410    -1.072330    -0.710586    -0.568650    -0.421546     0.173770     0.213474

           1.2          2.2          3.2          4.2
     -0.689801    -0.476224     0.249996     0.772793


 HOMO      7.1    -0.421546 =     -11.4708eV
 LUMO      8.1     0.173770 =       4.7285eV
 LUMO-HOMO         0.595316 =      16.1994eV

 Orbitals saved in record  2100.2


 **********************************************************************************************************************************
 DATASETS  * FILE   NREC   LENGTH (MB)   RECORD NAMES
              1      19       29.78       500      610      700      900      950      970     1000      129      960     1100   
                                          VAR    BASINP    GEOM    SYMINP    ZMAT    AOBASIS   BASIS     P2S    ABASIS      S 
                                         1400     1410     1200     1210     1080     1600     1650     1300     1700   
                                           T        V       H0       H01     AOSYM     SMH    MOLCAS    ERIS     OPER   

              2       4        0.46       700     1000      520     2100   
                                         GEOM     BASIS   MCVARS     RHF  

 PROGRAMS   *        TOTAL    HF-SCF       INT
 CPU TIMES  *         0.63      0.03      0.47
 REAL TIME  *         1.73 SEC
 DISK USED  *        34.66 MB
 **********************************************************************************************************************************


 PROGRAM * MP4 (Closed-shell)     Authors: C. Hampel, H.-J. Werner, 1991, M. Deegan, P.J. Knowles, 1992


 Convergence thresholds:  THRVAR = 1.00D-08  THRDEN = 1.00D-06

 MP4(T)     terms to be evaluated (factor= 0.000)


 Number of core orbitals:           2 (   2   0 )
 Number of closed-shell orbitals:   7 (   5   2 )
 Number of external orbitals:      34 (  22  12 )

 Molecular orbitals read from record     2100.2  Type=RHF/CANONICAL  

 Number of N-1 electron functions:               7
 Number of N-2 electron functions:              28
 Number of singly external CSFs:               134
 Number of doubly external CSFs:             14505
 Total number of CSFs:                       14640

 Length of J-op  integral file:               0.00 MB
 Length of K-op  integral file:               0.13 MB

 Memory could be reduced to 0.28 Mwords without degradation in triples

 Integral transformation finished. Total CPU:   0.01 sec, npass=  1  Memory used:   0.19 MW

 Reference energy:                   -130.99032533

                        CORR.ENERGY   TOTAL ENERGY   ENERGY CHANGE
 MP2:                   -0.36480959  -131.35513492    -0.36480959

 SCS-MP2 correlation energy:           -0.35913491   (PS=  1.200000  PT=  0.333333)
 SCS-MP2 total energy:               -131.34946024

 MP3(D):                -0.37958483  -131.36991016    -0.01477524
 MP4(DQ):               -0.38214236  -131.37246769    -0.00255753
 MP4(SDQ):              -0.38413161  -131.37445694    -0.00198925

 Norm of t1 vector:      0.03200184      S-energy:    -0.00198925      T1 diagnostic:  0.00604778


 Total CPU time for triples:      0.06 sec


 RESULTS
 =======

  Reference energy                   -130.990325329015
  MP4(SDQ) singlet pair energy         -0.254997795584
  MP4(SDQ) triplet pair energy         -0.127144562920
  MP4(SDQ) correlation energy          -0.384131610358

  Triples contribution                 -0.008261763798
  Total correlation energy             -0.392393374155

  MP4(SDQ) total energy              -131.374456939373
 !MP4(SDTQ) total energy             -131.382718703171

 Timing summary (sec):

 STEP                 CPU(USER)    SYS     CPU(TOT)    WALL
 Transformation          0.01      0.00      0.01      0.11
 CCSD iterations         0.97      0.00      0.97      0.05
 Triples                 0.06      0.01      0.07      0.06

 Program statistics:

 Available memory in ccsd:               805306165
 Min. memory needed in ccsd:                 55899
 Max. memory used in ccsd:                   65808
 Max. memory used in cckext:                105261 ( 1 integral passes)



 **********************************************************************************************************************************
 DATASETS  * FILE   NREC   LENGTH (MB)   RECORD NAMES
              1      20       30.65       500      610      700      900      950      970     1000      129      960     1100   
                                          VAR    BASINP    GEOM    SYMINP    ZMAT    AOBASIS   BASIS     P2S    ABASIS      S 
                                         1400     1410     1200     1210     1080     1600     1650     1300     1700     1380   
                                           T        V       H0       H01     AOSYM     SMH    MOLCAS    ERIS     OPER     JKOP   

              2       4        0.46       700     1000      520     2100   
                                         GEOM     BASIS   MCVARS     RHF  

 PROGRAMS   *        TOTAL       MP4    HF-SCF       INT
 CPU TIMES  *         0.77      0.14      0.03      0.47
 REAL TIME  *         1.99 SEC
 DISK USED  *        34.66 MB
 **********************************************************************************************************************************

 Dump information in style XML to xml output                                                                      

 Orbitals will not be exported.

 **********************************************************************************************************************************

 MP4/cc-pVDZ energy=   -131.382718703171

             MP4          HF-SCF
   -131.38271870   -130.99032533
 **********************************************************************************************************************************
 Molpro calculation terminated
