
 Working directory              : /home/jovyan/scratch/molpro.tcvYr2kvOE/
 Global scratch directory       : /home/jovyan/scratch/molpro.tcvYr2kvOE/
 Wavefunction directory         : /home/jovyan/wfu/
 Main file repository           : /home/jovyan/scratch/molpro.tcvYr2kvOE/

 id        : cardiff

 Nodes                nprocs
 jupyter-c-2efrancisan    1
 GA implementation: MPI file
 GA implementation (serial work in mppx): MPI file

 Using customized tuning parameters: mindgm=1; mindgv=20; mindgc=4; mindgr=1; noblas=0; minvec=7
 default implementation of scratch files=df  


 Variables initialized (1031), CPU time= 0.01 sec
 
 
 
 geometry={
 6
  C 0.000000 0.416575 0.000000
  H -0.263416 1.473336 0.000000
  O -1.110471 -0.343273 0.000000
  H 1.876501 0.630870 0.000000
  H -0.825348 -1.269969 0.000000
  N 1.156576 -0.083929 0.000000
 }
 basis=cc-pVDZ
 angstrom
 
 
 hf; ccsd(t)
 
 
 
 {put,xml;noorbitals,nobasis}
 Commands initialized (841), CPU time= 0.00 sec, 704 directives.
 Default parameters read. Elapsed time= 0.08 sec

 Checking input...
 Passed
1


                                         ***  PROGRAM SYSTEM MOLPRO  ***
                                       Copyright, TTI GmbH Stuttgart, 2015
                                    Version 2023.1 linked Mon Jun  5 13:27:10 2023


 **********************************************************************************************************************************
 LABEL *                                                                                                                                                                 
  (16 PROC) 64 bit serial version                                                        DATE: 02-Aug-23          TIME: 15:50:50  
 **********************************************************************************************************************************

 SHA1:             9738a14712571edd23541b6d7c4f3a3d766f8287
 **********************************************************************************************************************************

 Memory per process:       805 MW
 Total memory per node:   1074 MW
 Total GA space:           268 MW

 GA preallocation disabled
 GA check enabled

 Geometry recognized as XYZ


 Variable memory set to 805.3 MW

 SETTING BASIS          =    CC-PVDZ


 Recomputing integrals since basis changed


 Using spherical harmonics

 Library entry C      S cc-pVDZ              selected for orbital group  1
 Library entry C      P cc-pVDZ              selected for orbital group  1
 Library entry C      D cc-pVDZ              selected for orbital group  1
 Library entry H      S cc-pVDZ              selected for orbital group  2
 Library entry H      P cc-pVDZ              selected for orbital group  2
 Library entry O      S cc-pVDZ              selected for orbital group  3
 Library entry O      P cc-pVDZ              selected for orbital group  3
 Library entry O      D cc-pVDZ              selected for orbital group  3
 Library entry N      S cc-pVDZ              selected for orbital group  5
 Library entry N      P cc-pVDZ              selected for orbital group  5
 Library entry N      D cc-pVDZ              selected for orbital group  5


 PROGRAM * SEWARD (Integral evaluation for generally contracted gaussian basis sets)     Author: Roland Lindh, 1990

 Geometry written to block  1 of record 700


 Point group  Cs  



 ATOMIC COORDINATES

 NR  ATOM    CHARGE       X              Y              Z

   1  C       6.00    0.000000000    0.787212660    0.000000000
   2  H       1.00   -0.497784097    2.784201530    0.000000000
   3  O       8.00   -2.098486059   -0.648691956    0.000000000
   4  H       1.00    3.546072963    1.192171520    0.000000000
   5  H       1.00   -1.559681678   -2.399893597    0.000000000
   6  N       7.00    2.185611882   -0.158602824    0.000000000

 Bond lengths in Bohr (Angstrom)

 1-2  2.058094641  1-3  2.542728025  1-6  2.381484040  3-5  1.832216512  4-6  1.917145190
     ( 1.089096782)     ( 1.345553724)     ( 1.260227082)     ( 0.969567224)     ( 1.014509545)

 Bond angles

  1-3-5  107.28024880   1-6-4  111.80433602   2-1-3  110.38544653   2-1-6  127.39709766

  3-1-6  122.21745581

 NUCLEAR CHARGE:                   24
 NUMBER OF PRIMITIVE AOS:         102
 NUMBER OF SYMMETRY AOS:           99
 NUMBER OF CONTRACTIONS:           57   (   42A'  +   15A"  )
 NUMBER OF INNER CORE ORBITALS:     0   (    0A'  +    0A"  )
 NUMBER OF OUTER CORE ORBITALS:     3   (    3A'  +    0A"  )
 NUMBER OF VALENCE ORBITALS:       15   (   12A'  +    3A"  )


 NUCLEAR REPULSION ENERGY   71.20546877

 Eigenvalues of metric

         1 0.517E-02 0.119E-01 0.169E-01 0.303E-01 0.357E-01 0.372E-01 0.470E-01 0.627E-01
         2 0.107E+00 0.170E+00 0.193E+00 0.355E+00 0.450E+00 0.530E+00 0.565E+00 0.645E+00


 Contracted 2-electron integrals neglected if value below      1.0D-11
 AO integral compression algorithm  1   Integral accuracy      1.0D-11

     4.194 MB (compressed) written to integral file ( 61.6%)


 NUMBER OF SORTED TWO-ELECTRON INTEGRALS:     740496.     BUFFER LENGTH:  32768
 NUMBER OF SEGMENTS:   1  SEGMENT LENGTH:     740496      RECORD LENGTH: 524288

 Memory used in sort:       1.30 MW

 SORT1 READ      875140. AND WROTE      732783. INTEGRALS IN      3 RECORDS. CPU TIME:     0.02 SEC, REAL TIME:     0.04 SEC
 SORT2 READ      732783. AND WROTE      740496. INTEGRALS IN     16 RECORDS. CPU TIME:     0.03 SEC, REAL TIME:     0.05 SEC

 FILE SIZES:   FILE 1:    34.4 MBYTE,  FILE 4:    12.6 MBYTE,   TOTAL:     47.0 MBYTE

 OPERATOR DM      FOR CENTER  0  COORDINATES:    0.000000    0.000000    0.000000


 **********************************************************************************************************************************
 DATASETS  * FILE   NREC   LENGTH (MB)   RECORD NAMES
              1      19       32.00       500      610      700      900      950      970     1000      129      960     1100   
                                          VAR    BASINP    GEOM    SYMINP    ZMAT    AOBASIS   BASIS     P2S    ABASIS      S 
                                         1400     1410     1200     1210     1080     1600     1650     1300     1700   
                                           T        V       H0       H01     AOSYM     SMH    MOLCAS    ERIS     OPER   

 PROGRAMS   *        TOTAL       INT
 CPU TIMES  *         0.84      0.70
 REAL TIME  *         2.29 SEC
 DISK USED  *        45.25 MB
 **********************************************************************************************************************************


 Program * Restricted Hartree-Fock

 Orbital guess generated from atomic densities. Full valence occupancy:   15   3

 Initial occupancy:  10   2

 NELEC=   24   SYM=1   MS2= 0   THRE=1.0D-08   THRD=3.2D-06   THRG=3.2D-06  HFMA2=F  DIIS_START=2   DIIS_MAX=10   DIIS_INCORE=F

 Level shifts:    0.00 (CLOSED)    0.00 (OPEN)    0.30 (GAP_MIN)

 ITER           ETOT              DE          GRAD        DDIFF     DIIS  NEXP   TIME(IT)  TIME(TOT)  DIAG
   1     -168.87478413    -168.87478413     0.00D+00     0.20D+00     0     0       0.01      0.01    start
   2     -168.91517326      -0.04038913     0.13D-01     0.30D-01     1     0       0.01      0.02    diag
   3     -168.92765374      -0.01248048     0.66D-02     0.10D-01     2     0       0.01      0.03    diag
   4     -168.92848702      -0.00083329     0.13D-02     0.28D-02     3     0       0.00      0.03    diag
   5     -168.92857127      -0.00008424     0.40D-03     0.79D-03     4     0       0.01      0.04    diag
   6     -168.92858851      -0.00001724     0.15D-03     0.31D-03     5     0       0.01      0.05    diag
   7     -168.92859233      -0.00000382     0.63D-04     0.19D-03     6     0       0.01      0.06    diag
   8     -168.92859260      -0.00000028     0.16D-04     0.59D-04     7     0       0.00      0.06    fixocc
   9     -168.92859262      -0.00000002     0.45D-05     0.13D-04     8     0       0.01      0.07    diag
  10     -168.92859262      -0.00000000     0.15D-05     0.48D-05     9     0       0.01      0.08    diag/orth
  11     -168.92859262      -0.00000000     0.28D-06     0.83D-06     9     0       0.01      0.09    diag
  12     -168.92859262      -0.00000000     0.69D-07     0.15D-06     0     0       0.00      0.09    diag

 Final occupancy:  10   2

 !RHF STATE 1.1 Energy               -168.928592622810
  RHF One-electron energy            -371.507219599283
  RHF Two-electron energy             131.373158204339
  RHF Kinetic energy                  168.743000069372
  RHF Nuclear energy                   71.205468772134
  RHF Virial quotient                  -1.001099853347

 !RHF STATE 1.1 Dipole moment           0.03076969     0.45095337     0.00000000
 Dipole moment /Debye                   0.07820875     1.14620914     0.00000000

 Orbital energies:

           1.1          2.1          3.1          4.1          5.1          6.1          7.1          8.1          9.1         10.1
    -20.597286   -15.545242   -11.346347    -1.423744    -1.194194    -0.859785    -0.727866    -0.665130    -0.575445    -0.440993

          11.1         12.1
      0.194885     0.203827

           1.2          2.2          3.2          4.2
     -0.594176    -0.410242     0.194798     0.677605


 HOMO      2.2    -0.410242 =     -11.1633eV
 LUMO      3.2     0.194798 =       5.3007eV
 LUMO-HOMO         0.605040 =      16.4640eV

 Orbitals saved in record  2100.2


 **********************************************************************************************************************************
 DATASETS  * FILE   NREC   LENGTH (MB)   RECORD NAMES
              1      19       32.00       500      610      700      900      950      970     1000      129      960     1100   
                                          VAR    BASINP    GEOM    SYMINP    ZMAT    AOBASIS   BASIS     P2S    ABASIS      S 
                                         1400     1410     1200     1210     1080     1600     1650     1300     1700   
                                           T        V       H0       H01     AOSYM     SMH    MOLCAS    ERIS     OPER   

              2       4        0.49       700     1000      520     2100   
                                         GEOM     BASIS   MCVARS     RHF  

 PROGRAMS   *        TOTAL    HF-SCF       INT
 CPU TIMES  *         0.94      0.10      0.70
 REAL TIME  *         2.48 SEC
 DISK USED  *        45.25 MB
 **********************************************************************************************************************************


 PROGRAM * CCSD (Closed-shell coupled cluster)     Authors: C. Hampel, H.-J. Werner, 1991, M. Deegan, P.J. Knowles, 1992


 Convergence thresholds:  THRVAR = 1.00D-08  THRDEN = 1.00D-06

 CCSD(T)     terms to be evaluated (factor= 1.000)


 Number of core orbitals:           3 (   3   0 )
 Number of closed-shell orbitals:   9 (   7   2 )
 Number of external orbitals:      45 (  32  13 )

 Molecular orbitals read from record     2100.2  Type=RHF/CANONICAL  

 Number of N-1 electron functions:               9
 Number of N-2 electron functions:              45
 Number of singly external CSFs:               250
 Number of doubly external CSFs:             43465
 Total number of CSFs:                       43716

 Length of J-op  integral file:               0.00 MB
 Length of K-op  integral file:               0.20 MB
 Length of 3-ext integral record:             0.00 MB

 Memory could be reduced to 0.72 Mwords without degradation in triples

 Integral transformation finished. Total CPU:   0.03 sec, npass=  1  Memory used:   0.48 MW

 Reference energy:                   -168.92859262

 MP2 singlet pair energy:              -0.29530246
 MP2 triplet pair energy:              -0.18773839
 MP2 correlation energy:               -0.48304085
 MP2 total energy:                   -169.41163348

 SCS-MP2 correlation energy:           -0.47117795   (PS=  1.200000  PT=  0.333333)
 SCS-MP2 total energy:               -169.39977058

 ITER.      SQ.NORM     CORR.ENERGY   TOTAL ENERGY   ENERGY CHANGE        DEN1      VAR(S)    VAR(P)  DIIS     TIME  TIME/IT
   1      1.15173474    -0.50103355  -169.42962618    -0.01799270    -0.00481395  0.32D-02  0.26D-02  1  1     1.32     0.09
   2      1.16430095    -0.50324213  -169.43183475    -0.00220857    -0.01214207  0.60D-04  0.47D-03  2  2     1.38     0.08
   3      1.16970967    -0.50357500  -169.43216763    -0.00033288    -0.00256960  0.64D-04  0.28D-04  3  3     1.45     0.08
   4      1.17188690    -0.50354665  -169.43213927     0.00002835    -0.00075094  0.48D-05  0.42D-05  4  4     1.52     0.08
   5      1.17266298    -0.50352780  -169.43212042     0.00001885    -0.00018311  0.56D-06  0.35D-06  5  5     1.58     0.08
   6      1.17282143    -0.50352036  -169.43211298     0.00000744    -0.00001601  0.59D-07  0.33D-07  6  6     1.65     0.08
   7      1.17285079    -0.50351772  -169.43211035     0.00000264    -0.00000097  0.81D-08  0.55D-08  6  2     1.72     0.08
   8      1.17285723    -0.50351732  -169.43210995     0.00000040    -0.00000007  0.19D-08  0.70D-09  6  1     1.79     0.08
   9      1.17285843    -0.50351711  -169.43210973     0.00000021     0.00000064  0.23D-09  0.17D-09  6  4     1.85     0.08

 Norm of t1 vector:      0.08569293      S-energy:    -0.00000025      T1 diagnostic:  0.01428215
                                                                       D1 diagnostic:  0.04551292
                                                                       D2 diagnostic:  0.17517241 (internal)

 Doubles amplitudes (print threshold =  0.500E-01):

         I         J         SYM. A    SYM. B    A         B      T(IJ, AB)

         9         9         2         2         1         1     -0.10292842


 Total CPU time for triples:      0.33 sec


 RESULTS
 =======

  Reference energy                   -168.928592622810
  CCSD singlet pair energy             -0.337310366430
  CCSD triplet pair energy             -0.166206487738
  CCSD correlation energy              -0.503517109016

  Triples (T) contribution             -0.015332637897
  Total correlation energy             -0.518849746912

  CCSD total energy                  -169.432109731826
  CCSD[T] energy                     -169.448375833254
  CCSD-T energy                      -169.447082621138
 !CCSD(T) total energy               -169.447442369722

 Timing summary (sec):

 STEP                 CPU(USER)    SYS     CPU(TOT)    WALL
 Transformation          0.03      0.00      0.03      0.14
 CCSD iterations         1.84      0.07      1.91      0.72
 Triples                 0.33      0.01      0.34      0.36

 Program statistics:

 Available memory in ccsd:               805306034
 Min. memory needed in ccsd:                147835
 Max. memory used in ccsd:                  180273
 Max. memory used in cckext:                231743 ( 9 integral passes)



 **********************************************************************************************************************************
 DATASETS  * FILE   NREC   LENGTH (MB)   RECORD NAMES
              1      20       34.62       500      610      700      900      950      970     1000      129      960     1100   
                                          VAR    BASINP    GEOM    SYMINP    ZMAT    AOBASIS   BASIS     P2S    ABASIS      S 
                                         1400     1410     1200     1210     1080     1600     1650     1300     1700     1380   
                                           T        V       H0       H01     AOSYM     SMH    MOLCAS    ERIS     OPER     JKOP   

              2       4        0.49       700     1000      520     2100   
                                         GEOM     BASIS   MCVARS     RHF  

 PROGRAMS   *        TOTAL   CCSD(T)    HF-SCF       INT
 CPU TIMES  *         1.97      1.03      0.10      0.70
 REAL TIME  *         3.75 SEC
 DISK USED  *        45.25 MB
 **********************************************************************************************************************************

 Dump information in style XML to xml output                                                                      

 Orbitals will not be exported.

 **********************************************************************************************************************************

 CCSD(T)/cc-pVDZ energy=   -169.447442369722

         CCSD(T)          HF-SCF
   -169.44744237   -168.92859262
 **********************************************************************************************************************************
 Molpro calculation terminated
