
 Working directory              : /home/jovyan/scratch/molpro.iZrUJ4WS6f/
 Global scratch directory       : /home/jovyan/scratch/molpro.iZrUJ4WS6f/
 Wavefunction directory         : /home/jovyan/wfu/
 Main file repository           : /home/jovyan/scratch/molpro.iZrUJ4WS6f/

 id        : cardiff

 Nodes                nprocs
 jupyter-c-2efrancisan    1
 GA implementation: MPI file
 GA implementation (serial work in mppx): MPI file

 Using customized tuning parameters: mindgm=1; mindgv=20; mindgc=4; mindgr=1; noblas=0; minvec=7
 default implementation of scratch files=df  


 Variables initialized (1031), CPU time= 0.01 sec
 
 
 
 geometry={
 16
  O     1.2974841    1.0074030   -0.7498257
  C     0.7225121    0.0395694    0.0172773
  C    -0.7225121   -0.0395694    0.0172773
  O    -1.2974841   -1.0074030   -0.7498257
  C    -2.6299475   -0.8691602   -0.6182315
  C    -2.9323870    0.1653405    0.1958645
  C    -1.6875177    0.7094337    0.6145398
  H    -1.5215572    1.5437234    1.2685818
  H    -3.9158592    0.4973274    0.4675193
  H    -3.2250196   -1.5753406   -1.1627414
  C     2.6299475    0.8691602   -0.6182315
  C     2.9323870   -0.1653405    0.1958645
  C     1.6875177   -0.7094337    0.6145398
  H     3.2250196    1.5753406   -1.1627414
  H     3.9158592   -0.4973274    0.4675193
  H     1.5215572   -1.5437234    1.2685818
 }
 basis=cc-pVDZ
 angstrom
 
 
 hf; ccsd
 
 
 
 {put,xml;noorbitals,nobasis}
 Commands initialized (841), CPU time= 0.01 sec, 704 directives.
 Default parameters read. Elapsed time= 0.08 sec

 Checking input...
 Passed
1


                                         ***  PROGRAM SYSTEM MOLPRO  ***
                                       Copyright, TTI GmbH Stuttgart, 2015
                                    Version 2023.1 linked Mon Jun  5 13:27:10 2023


 **********************************************************************************************************************************
 LABEL *                                                                                                                                                                 
  (16 PROC) 64 bit serial version                                                        DATE: 04-Aug-23          TIME: 06:07:43  
 **********************************************************************************************************************************

 SHA1:             9738a14712571edd23541b6d7c4f3a3d766f8287
 **********************************************************************************************************************************

 Memory per process:       805 MW
 Total memory per node:   1074 MW
 Total GA space:           268 MW

 GA preallocation disabled
 GA check enabled

 Geometry recognized as XYZ


 Variable memory set to 805.3 MW

 SETTING BASIS          =    CC-PVDZ


 Recomputing integrals since basis changed


 Using spherical harmonics

 Library entry O      S cc-pVDZ              selected for orbital group  1
 Library entry O      P cc-pVDZ              selected for orbital group  1
 Library entry O      D cc-pVDZ              selected for orbital group  1
 Library entry C      S cc-pVDZ              selected for orbital group  2
 Library entry C      P cc-pVDZ              selected for orbital group  2
 Library entry C      D cc-pVDZ              selected for orbital group  2
 Library entry H      S cc-pVDZ              selected for orbital group  3
 Library entry H      P cc-pVDZ              selected for orbital group  3


 PROGRAM * SEWARD (Integral evaluation for generally contracted gaussian basis sets)     Author: Roland Lindh, 1990

 Geometry written to block  1 of record 700


 Point group  C2  



 ATOMIC COORDINATES

 NR  ATOM    CHARGE       X              Y              Z

   1  O       8.00    2.451889600    1.903715767   -1.416965214
   2  O       8.00   -2.451889600   -1.903715767   -1.416965214
   3  C       6.00    1.365349991    0.074775329    0.032649365
   4  C       6.00   -1.365349991   -0.074775329    0.032649365
   5  C       6.00   -4.969880497   -1.642474736   -1.168288217
   6  C       6.00    4.969880497    1.642474736   -1.168288217
   7  C       6.00   -5.541408321    0.312448262    0.370130263
   8  C       6.00    5.541408321   -0.312448262    0.370130263
   9  C       6.00   -3.188946283    1.340635397    1.161311915
  10  C       6.00    3.188946283   -1.340635397    1.161311915
  11  H       1.00   -2.875326391    2.917214438    2.397272169
  12  H       1.00    2.875326391   -2.917214438    2.397272169
  13  H       1.00   -7.399901431    0.939812580    0.883483435
  14  H       1.00    7.399901431   -0.939812580    0.883483435
  15  H       1.00   -6.094403791   -2.976962287   -2.197262800
  16  H       1.00    6.094403791    2.976962287   -2.197262800

 Bond lengths in Bohr (Angstrom)

 1-3  2.574290947  1-6  2.543691271  2-4  2.574290947  2-5  2.543691271  3-4  2.734792092
     ( 1.362256103)     ( 1.346063452)     ( 1.362256103)     ( 1.346063452)     ( 1.447189652)

  3-10  2.569585591   4- 9  2.569585591   5- 7  2.552469275   5-15  2.025882117   6- 8  2.552469275
       ( 1.359766136)       ( 1.359766136)       ( 1.350708572)       ( 1.072050648)       ( 1.350708572)

  6-16  2.025882117   7- 9  2.686487452   7-13  2.027588248   8-10  2.686487452   8-14  2.027588248
       ( 1.072050648)       ( 1.421627937)       ( 1.072953494)       ( 1.421627937)       ( 1.072953494)

  9-11  2.027697379  10-12  2.027697379
       ( 1.073011244)       ( 1.073011244)

 Bond angles

  1- 3- 4  117.40602441   1- 3-10  109.82498466   1- 6- 8  111.05297997   1- 6-16  115.60495453

  2- 4- 3  117.40602441   2- 4- 9  109.82498466   2- 5- 7  111.05297997   2- 5-15  115.60495453

  3- 1- 6  106.84550722   3- 4- 9  132.72662389   3-10- 8  106.33606183   3-10-12  125.89148011

  4- 2- 5  106.84550722   4- 3-10  132.72662389   4- 9- 7  106.33606183   4- 9-11  125.89148011

  5- 7- 9  105.93571838   5- 7-13  126.49946791   6- 8-10  105.93571838   6- 8-14  126.49946791

  7- 5-15  133.34187640   7- 9-11  127.77240329   8- 6-16  133.34187640   8-10-12  127.77240329

  9- 7-13  127.56436323  10- 8-14  127.56436323

 NUCLEAR CHARGE:                   70
 NUMBER OF PRIMITIVE AOS:         312
 NUMBER OF SYMMETRY AOS:          302
 NUMBER OF CONTRACTIONS:          170   (   85A   +   85B   )
 NUMBER OF INNER CORE ORBITALS:     0   (    0A   +    0B   )
 NUMBER OF OUTER CORE ORBITALS:    10   (    5A   +    5B   )
 NUMBER OF VALENCE ORBITALS:       46   (   23A   +   23B   )


 NUCLEAR REPULSION ENERGY  482.01306671

 Eigenvalues of metric

         1 0.542E-03 0.273E-02 0.533E-02 0.792E-02 0.127E-01 0.174E-01 0.187E-01 0.206E-01
         2 0.466E-03 0.891E-03 0.319E-02 0.528E-02 0.858E-02 0.131E-01 0.178E-01 0.193E-01


 Contracted 2-electron integrals neglected if value below      1.0D-11
 AO integral compression algorithm  1   Integral accuracy      1.0D-11

     256.377 MB (compressed) written to integral file ( 52.1%)


 NUMBER OF SORTED TWO-ELECTRON INTEGRALS:   53439755.     BUFFER LENGTH:  32768
 NUMBER OF SEGMENTS:   4  SEGMENT LENGTH:   15997935      RECORD LENGTH: 524288

 Memory used in sort:      16.55 MW

 SORT1 READ    61486128. AND WROTE    53103894. INTEGRALS IN    154 RECORDS. CPU TIME:     0.84 SEC, REAL TIME:     1.41 SEC
 SORT2 READ    53103894. AND WROTE    53439755. INTEGRALS IN    978 RECORDS. CPU TIME:     1.15 SEC, REAL TIME:     1.41 SEC

 FILE SIZES:   FILE 1:   287.4 MBYTE,  FILE 4:   646.0 MBYTE,   TOTAL:    933.4 MBYTE

 OPERATOR DM      FOR CENTER  0  COORDINATES:    0.000000    0.000000    0.000000


 **********************************************************************************************************************************
 DATASETS  * FILE   NREC   LENGTH (MB)   RECORD NAMES
              1      19      247.48       500      610      700      900      950      970     1000      129      960     1100   
                                          VAR    BASINP    GEOM    SYMINP    ZMAT    AOBASIS   BASIS     P2S    ABASIS      S 
                                         1400     1410     1200     1210     1080     1600     1650     1300     1700   
                                           T        V       H0       H01     AOSYM     SMH    MOLCAS    ERIS     OPER   

 PROGRAMS   *        TOTAL       INT
 CPU TIMES  *        11.98     11.85
 REAL TIME  *        14.22 SEC
 DISK USED  *       890.74 MB
 **********************************************************************************************************************************


 Program * Restricted Hartree-Fock

 Orbital guess generated from atomic densities. Full valence occupancy:   28  28

 Initial occupancy:  18  17

 NELEC=   70   SYM=1   MS2= 0   THRE=1.0D-08   THRD=3.2D-06   THRG=3.2D-06  HFMA2=F  DIIS_START=2   DIIS_MAX=10   DIIS_INCORE=F

 Level shifts:    0.00 (CLOSED)    0.00 (OPEN)    0.30 (GAP_MIN)

 ITER           ETOT              DE          GRAD        DDIFF     DIIS  NEXP   TIME(IT)  TIME(TOT)  DIAG
   1     -456.03471410    -456.03471410     0.00D+00     0.13D+00     0     0       0.35      0.67    start
   2     -456.11451412      -0.07980001     0.56D-02     0.13D-01     1     0       0.34      1.01    diag
   3     -456.13073060      -0.01621648     0.27D-02     0.50D-02     2     0       0.34      1.35    diag
   4     -456.13377738      -0.00304678     0.10D-02     0.19D-02     3     0       0.34      1.69    diag
   5     -456.13396360      -0.00018622     0.26D-03     0.48D-03     4     0       0.34      2.03    diag
   6     -456.13399544      -0.00003184     0.75D-04     0.16D-03     5     0       0.36      2.39    diag
   7     -456.13400430      -0.00000886     0.31D-04     0.96D-04     6     0       0.35      2.74    diag
   8     -456.13400502      -0.00000073     0.96D-05     0.29D-04     7     0       0.36      3.10    fixocc
   9     -456.13400509      -0.00000007     0.39D-05     0.95D-05     8     0       0.37      3.47    diag
  10     -456.13400510      -0.00000000     0.86D-06     0.22D-05     9     0       0.33      3.80    diag/orth
  11     -456.13400510      -0.00000000     0.30D-06     0.70D-06     0     0       0.36      4.16    diag

 Final occupancy:  18  17

 !RHF STATE 1.1 Energy               -456.134005098592
  RHF One-electron energy           -1576.552267782216
  RHF Two-electron energy             638.405195977410
  RHF Kinetic energy                  456.073349650661
  RHF Nuclear energy                  482.013066706214
  RHF Virial quotient                  -1.000132994940

 !RHF STATE 1.1 Dipole moment           0.00000000     0.00000000     0.30759412
 Dipole moment /Debye                   0.00000000     0.00000000     0.78182628

 Orbital energies:

           1.1          2.1          3.1          4.1          5.1          6.1          7.1          8.1          9.1         10.1
    -20.625882   -11.295289   -11.291467   -11.236534   -11.231498    -1.474402    -1.095163    -1.058367    -0.826699    -0.804738

          11.1         12.1         13.1         14.1         15.1         16.1         17.1         18.1         19.1         20.1
     -0.750333    -0.643240    -0.608617    -0.572439    -0.566101    -0.534428    -0.401693    -0.331700     0.143702     0.205425

           1.2          2.2          3.2          4.2          5.2          6.2          7.2          8.2          9.2         10.2
    -20.625882   -11.294469   -11.291467   -11.236535   -11.231498    -1.464793    -1.090739    -0.975537    -0.816722    -0.762980

          11.2         12.2         13.2         14.2         15.2         16.2         17.2         18.2         19.2
     -0.685453    -0.635297    -0.587810    -0.568523    -0.550068    -0.395476    -0.309036     0.162894     0.203324


 HOMO     17.2    -0.309036 =      -8.4093eV
 LUMO     19.1     0.143702 =       3.9103eV
 LUMO-HOMO         0.452738 =      12.3196eV

 Orbitals saved in record  2100.2


 **********************************************************************************************************************************
 DATASETS  * FILE   NREC   LENGTH (MB)   RECORD NAMES
              1      19      247.48       500      610      700      900      950      970     1000      129      960     1100   
                                          VAR    BASINP    GEOM    SYMINP    ZMAT    AOBASIS   BASIS     P2S    ABASIS      S 
                                         1400     1410     1200     1210     1080     1600     1650     1300     1700   
                                           T        V       H0       H01     AOSYM     SMH    MOLCAS    ERIS     OPER   

              2       4        0.88       700     1000      520     2100   
                                         GEOM     BASIS   MCVARS     RHF  

 PROGRAMS   *        TOTAL    HF-SCF       INT
 CPU TIMES  *        16.14      4.16     11.85
 REAL TIME  *        19.01 SEC
 DISK USED  *       890.74 MB
 **********************************************************************************************************************************


 PROGRAM * CCSD (Closed-shell coupled cluster)     Authors: C. Hampel, H.-J. Werner, 1991, M. Deegan, P.J. Knowles, 1992


 Convergence thresholds:  THRVAR = 1.00D-08  THRDEN = 1.00D-06

 Number of core orbitals:          10 (   5   5 )
 Number of closed-shell orbitals:  25 (  13  12 )
 Number of external orbitals:     135 (  67  68 )

 Molecular orbitals read from record     2100.2  Type=RHF/CANONICAL  

 Number of N-1 electron functions:              25
 Number of N-2 electron functions:             325
 Number of singly external CSFs:              1687
 Number of doubly external CSFs:           2849344
 Total number of CSFs:                     2851032

 Length of J-op  integral file:               0.00 MB
 Length of K-op  integral file:               1.05 MB
 Length of 3-ext integral record:             0.00 MB

 Integral transformation finished. Total CPU:   6.10 sec, npass=  1  Memory used:  29.15 MW

 Reference energy:                   -456.13400510

 MP2 singlet pair energy:              -0.82930873
 MP2 triplet pair energy:              -0.57214451
 MP2 correlation energy:               -1.40145324
 MP2 total energy:                   -457.53545834

 SCS-MP2 correlation energy:           -1.35117151   (PS=  1.200000  PT=  0.333333)
 SCS-MP2 total energy:               -457.48517660

 ITER.      SQ.NORM     CORR.ENERGY   TOTAL ENERGY   ENERGY CHANGE        DEN1      VAR(S)    VAR(P)  DIIS     TIME  TIME/IT
   1      1.48263556    -1.43585080  -457.56985590    -0.03439756     0.00714614  0.96D-02  0.10D-01  1  1    37.24    14.83
   2      1.52009777    -1.44060562  -457.57461072    -0.00475482    -0.03719012  0.18D-03  0.15D-02  2  2    52.05    15.11
   3      1.53508204    -1.44108164  -457.57508674    -0.00047602    -0.00706447  0.16D-03  0.10D-03  3  3    66.99    15.21
   4      1.54057321    -1.44096398  -457.57496908     0.00011766    -0.00185946  0.11D-04  0.16D-04  4  4    81.95    15.27
   5      1.54280320    -1.44101379  -457.57501888    -0.00004981    -0.00048616  0.35D-05  0.14D-05  5  5    96.93    15.32
   6      1.54337314    -1.44098840  -457.57499350     0.00002538    -0.00006668  0.70D-06  0.24D-06  6  6   111.97    15.36
   7      1.54353418    -1.44098213  -457.57498723     0.00000627    -0.00000686  0.13D-06  0.68D-07  6  2   126.83    15.36
   8      1.54359716    -1.44098064  -457.57498574     0.00000149    -0.00000264  0.25D-07  0.10D-07  6  1   141.69    15.42
   9      1.54361983    -1.44097903  -457.57498413     0.00000161     0.00000029  0.14D-08  0.14D-08  6  3   156.55    15.41
  10      1.54361996    -1.44097947  -457.57498457    -0.00000044     0.00000140  0.19D-09  0.20D-09  6  4   171.39    15.40
  11      1.54361889    -1.44097964  -457.57498473    -0.00000017     0.00000116  0.38D-10  0.27D-10  6  5   186.10    15.38

 Norm of t1 vector:      0.13576445      S-energy:     0.00000003      T1 diagnostic:  0.01357645
                                                                       D1 diagnostic:  0.04768224
                                                                       D2 diagnostic:  0.18955859 (internal)


 RESULTS
 =======

  Reference energy                   -456.134005098591
  CCSD singlet pair energy             -0.936266177367
  CCSD triplet pair energy             -0.504713486051
  CCSD correlation energy              -1.440979635628

 !CCSD total energy                  -457.574984734219

 Timing summary (sec):

 STEP                 CPU(USER)    SYS     CPU(TOT)    WALL
 Transformation          6.28      0.53      6.81      7.16
 CCSD iterations       180.06      3.87    183.93    169.63

 Program statistics:

 Available memory in ccsd:               805303850
 Min. memory needed in ccsd:               7096616
 Max. memory used in ccsd:                 9698622
 Max. memory used in cckext:              10153416 (11 integral passes)



 **********************************************************************************************************************************
 DATASETS  * FILE   NREC   LENGTH (MB)   RECORD NAMES
              1      20      419.75       500      610      700      900      950      970     1000      129      960     1100   
                                          VAR    BASINP    GEOM    SYMINP    ZMAT    AOBASIS   BASIS     P2S    ABASIS      S 
                                         1400     1410     1200     1210     1080     1600     1650     1300     1700     1380   
                                           T        V       H0       H01     AOSYM     SMH    MOLCAS    ERIS     OPER     JKOP   

              2       4        0.88       700     1000      520     2100   
                                         GEOM     BASIS   MCVARS     RHF  

 PROGRAMS   *        TOTAL      CCSD    HF-SCF       INT
 CPU TIMES  *       186.10    169.95      4.16     11.85
 REAL TIME  *       195.85 SEC
 DISK USED  *       890.74 MB
 **********************************************************************************************************************************

 Dump information in style XML to xml output                                                                      

 Orbitals will not be exported.

 **********************************************************************************************************************************

 CCSD/cc-pVDZ energy=   -457.574984734219

            CCSD          HF-SCF
   -457.57498473   -456.13400510
 **********************************************************************************************************************************
 Molpro calculation terminated
