
 Working directory              : /home/jovyan/scratch/molpro.bTe2SToH3s/
 Global scratch directory       : /home/jovyan/scratch/molpro.bTe2SToH3s/
 Wavefunction directory         : /home/jovyan/wfu/
 Main file repository           : /home/jovyan/scratch/molpro.bTe2SToH3s/

 id        : cardiff

 Nodes                nprocs
 jupyter-c-2efrancisan    1
 GA implementation: MPI file
 GA implementation (serial work in mppx): MPI file

 Using customized tuning parameters: mindgm=1; mindgv=20; mindgc=4; mindgr=1; noblas=0; minvec=7
 default implementation of scratch files=df  


 Variables initialized (1031), CPU time= 0.01 sec
 
 
 
 geometry={
           11
     C         -0.09812376     -0.86171422      0.74510227
     C         -0.09812376     -0.86171422     -0.74510227
     C         -0.07649575      0.48854926      1.14927041
     C         -0.07649575      0.48854926     -1.14927041
     C         -0.06639375      1.29138755      0.00000000
     H          0.96023961     -1.09286530      0.00000000
     H         -0.24947482     -1.74512953      1.35355848
     H         -0.24947482     -1.74512953     -1.35355848
     H         -0.02538874      0.83198439      2.17492777
     H         -0.02538874      0.83198439     -2.17492777
     H          0.00512027      2.37409794      0.00000000
 }
 basis=cc-pVDZ
 angstrom
 
 
 hf; papt;mp4
 
 
 
 {put,xml;noorbitals,nobasis}
 Commands initialized (841), CPU time= 0.01 sec, 704 directives.
 Default parameters read. Elapsed time= 0.10 sec

 Checking input...
 Passed
1


                                         ***  PROGRAM SYSTEM MOLPRO  ***
                                       Copyright, TTI GmbH Stuttgart, 2015
                                    Version 2023.1 linked Mon Jun  5 13:27:10 2023


 **********************************************************************************************************************************
 LABEL *                                                                                                                                                                 
  (16 PROC) 64 bit serial version                                                        DATE: 03-Aug-23          TIME: 11:02:08  
 **********************************************************************************************************************************

 SHA1:             9738a14712571edd23541b6d7c4f3a3d766f8287
 **********************************************************************************************************************************

 Memory per process:       805 MW
 Total memory per node:   1074 MW
 Total GA space:           268 MW

 GA preallocation disabled
 GA check enabled

 Geometry recognized as XYZ


 Variable memory set to 805.3 MW

 SETTING BASIS          =    CC-PVDZ


 Recomputing integrals since basis changed


 Using spherical harmonics

 Library entry C      S cc-pVDZ              selected for orbital group  1
 Library entry C      P cc-pVDZ              selected for orbital group  1
 Library entry C      D cc-pVDZ              selected for orbital group  1
 Library entry H      S cc-pVDZ              selected for orbital group  2
 Library entry H      P cc-pVDZ              selected for orbital group  2


 PROGRAM * SEWARD (Integral evaluation for generally contracted gaussian basis sets)     Author: Roland Lindh, 1990

 Geometry written to block  1 of record 700


 Point group  Cs  



 ATOMIC COORDINATES

 NR  ATOM    CHARGE       X              Y              Z

   1  C       6.00   -0.185427033   -1.628403873    1.408039225
   2  C       6.00   -0.185427033   -1.628403873   -1.408039225
   3  C       6.00   -0.144556017    0.923224300    2.171806318
   4  C       6.00   -0.144556017    0.923224300   -2.171806318
   5  C       6.00   -0.125466004    2.440368790    0.000000000
   6  H       1.00    1.814589877   -2.065216108    0.000000000
   7  H       1.00   -0.471439085   -3.297816864    2.557854821
   8  H       1.00   -0.471439085   -3.297816864   -2.557854821
   9  H       1.00   -0.047977765    1.572222637    4.110017826
  10  H       1.00   -0.047977765    1.572222637   -4.110017826
  11  H       1.00    0.009675908    4.486394900    0.000000000

 Bond lengths in Bohr (Angstrom)

 1-2  2.816078450  1-3  2.663797467  1-6  2.484642233  1-7  2.047148878  2-4  2.663797467
     ( 1.490204540)     ( 1.409620914)     ( 1.314816047)     ( 1.083304534)     ( 1.409620914)

 2-6  2.484642233  2-8  2.047148878  3-5  2.649308309  3-9  2.046262459  4-5  2.649308309
     ( 1.314816047)     ( 1.083304534)     ( 1.401953582)     ( 1.082835461)     ( 1.401953582)

  4-10  2.046262459   5-11  2.050484376
       ( 1.082835461)       ( 1.085069603)

 Bond angles

  1-2-4  106.66175794   1-2-6   55.47978489   1-2-8  124.17114784   1-3-5  108.27691816

  1-3-9  125.17759500   1-6-2   69.04043022   2-1-3  106.66175794   2-1-6   55.47978489

  2- 1- 7  124.17114784   2- 4- 5  108.27691816   2- 4-10  125.17759500   3- 1- 6  108.57437980

  3- 1- 7  128.48025281   3- 5- 4  110.12225738   3- 5-11  124.88189150   4- 2- 6  108.57437980

  4- 2- 8  128.48025281   4- 5-11  124.88189150   5- 3- 9  126.47779134   5- 4-10  126.47779134

  6-1-7  106.70181673   6-2-8  106.70181673

 NUCLEAR CHARGE:                   36
 NUMBER OF PRIMITIVE AOS:         177
 NUMBER OF SYMMETRY AOS:          172
 NUMBER OF CONTRACTIONS:          100   (   56A'  +   44A"  )
 NUMBER OF INNER CORE ORBITALS:     0   (    0A'  +    0A"  )
 NUMBER OF OUTER CORE ORBITALS:     5   (    3A'  +    2A"  )
 NUMBER OF VALENCE ORBITALS:       26   (   15A'  +   11A"  )


 NUCLEAR REPULSION ENERGY  158.26977708

 Eigenvalues of metric

         1 0.900E-03 0.531E-02 0.161E-01 0.177E-01 0.195E-01 0.250E-01 0.312E-01 0.436E-01
         2 0.116E-02 0.483E-02 0.651E-02 0.178E-01 0.207E-01 0.262E-01 0.330E-01 0.588E-01


 Contracted 2-electron integrals neglected if value below      1.0D-11
 AO integral compression algorithm  1   Integral accuracy      1.0D-11

     33.030 MB (compressed) written to integral file ( 52.8%)


 NUMBER OF SORTED TWO-ELECTRON INTEGRALS:    6505071.     BUFFER LENGTH:  32768
 NUMBER OF SEGMENTS:   1  SEGMENT LENGTH:    6505071      RECORD LENGTH: 524288

 Memory used in sort:       7.06 MW

 SORT1 READ     7757492. AND WROTE     6393264. INTEGRALS IN     19 RECORDS. CPU TIME:     0.10 SEC, REAL TIME:     0.19 SEC
 SORT2 READ     6393264. AND WROTE     6505071. INTEGRALS IN    126 RECORDS. CPU TIME:     0.20 SEC, REAL TIME:     0.24 SEC

 FILE SIZES:   FILE 1:    63.5 MBYTE,  FILE 4:    79.8 MBYTE,   TOTAL:    143.2 MBYTE

 OPERATOR DM      FOR CENTER  0  COORDINATES:    0.000000    0.000000    0.000000


 **********************************************************************************************************************************
 DATASETS  * FILE   NREC   LENGTH (MB)   RECORD NAMES
              1      19       55.79       500      610      700      900      950      970     1000      129      960     1100   
                                          VAR    BASINP    GEOM    SYMINP    ZMAT    AOBASIS   BASIS     P2S    ABASIS      S 
                                         1400     1410     1200     1210     1080     1600     1650     1300     1700   
                                           T        V       H0       H01     AOSYM     SMH    MOLCAS    ERIS     OPER   

 PROGRAMS   *        TOTAL       INT
 CPU TIMES  *         2.25      2.10
 REAL TIME  *         3.38 SEC
 DISK USED  *       137.09 MB
 **********************************************************************************************************************************


 Program * Restricted Hartree-Fock

 Orbital guess generated from atomic densities. Full valence occupancy:   18  13

 Initial occupancy:  11   7

 NELEC=   36   SYM=1   MS2= 0   THRE=1.0D-08   THRD=3.2D-06   THRG=3.2D-06  HFMA2=F  DIIS_START=2   DIIS_MAX=10   DIIS_INCORE=F

 Level shifts:    0.00 (CLOSED)    0.00 (OPEN)    0.30 (GAP_MIN)

 ITER           ETOT              DE          GRAD        DDIFF     DIIS  NEXP   TIME(IT)  TIME(TOT)  DIAG
   1     -192.68537171    -192.68537171     0.00D+00     0.15D+00     0     0       0.04      0.09    start
   2     -192.73835954      -0.05298783     0.75D-02     0.18D-01     1     0       0.05      0.14    diag
   3     -192.74913656      -0.01077702     0.37D-02     0.63D-02     2     0       0.04      0.18    diag
   4     -192.75027158      -0.00113502     0.96D-03     0.26D-02     3     0       0.04      0.22    diag
   5     -192.75033652      -0.00006494     0.25D-03     0.50D-03     4     0       0.05      0.27    diag
   6     -192.75034605      -0.00000953     0.67D-04     0.21D-03     5     0       0.05      0.32    diag
   7     -192.75034794      -0.00000189     0.24D-04     0.81D-04     6     0       0.04      0.36    diag
   8     -192.75034848      -0.00000054     0.11D-04     0.51D-04     7     0       0.04      0.40    fixocc
   9     -192.75034853      -0.00000005     0.38D-05     0.17D-04     8     0       0.05      0.45    diag
  10     -192.75034853      -0.00000000     0.11D-05     0.50D-05     9     0       0.04      0.49    diag/orth
  11     -192.75034853      -0.00000000     0.22D-06     0.70D-06     9     0       0.05      0.54    diag
  12     -192.75034853      -0.00000000     0.76D-07     0.18D-06     0     0       0.04      0.58    diag

 Final occupancy:  11   7

 !RHF STATE 1.1 Energy               -192.750348531994
  RHF One-electron energy            -572.374660131075
  RHF Two-electron energy             221.354534519897
  RHF Kinetic energy                  192.499935671947
  RHF Nuclear energy                  158.269777079184
  RHF Virial quotient                  -1.001300846461

 !RHF STATE 1.1 Dipole moment           0.21646150    -0.48832625     0.00000000
 Dipole moment /Debye                   0.55019025    -1.24120152     0.00000000

 Orbital energies:

           1.1          2.1          3.1          4.1          5.1          6.1          7.1          8.1          9.1         10.1
    -11.260681   -11.224837   -11.217341    -1.172542    -0.976588    -0.742295    -0.699494    -0.603034    -0.529492    -0.508750

          11.1         12.1         13.1
     -0.348182     0.169384     0.194997

           1.2          2.2          3.2          4.2          5.2          6.2          7.2          8.2          9.2
    -11.259961   -11.217444    -0.954015    -0.743663    -0.551985    -0.523715    -0.298778     0.179951     0.232006


 HOMO      7.2    -0.298778 =      -8.1302eV
 LUMO     12.1     0.169384 =       4.6092eV
 LUMO-HOMO         0.468162 =      12.7393eV

 Orbitals saved in record  2100.2


 **********************************************************************************************************************************
 DATASETS  * FILE   NREC   LENGTH (MB)   RECORD NAMES
              1      19       55.79       500      610      700      900      950      970     1000      129      960     1100   
                                          VAR    BASINP    GEOM    SYMINP    ZMAT    AOBASIS   BASIS     P2S    ABASIS      S 
                                         1400     1410     1200     1210     1080     1600     1650     1300     1700   
                                           T        V       H0       H01     AOSYM     SMH    MOLCAS    ERIS     OPER   

              2       4        0.63       700     1000      520     2100   
                                         GEOM     BASIS   MCVARS     RHF  

 PROGRAMS   *        TOTAL    HF-SCF       INT
 CPU TIMES  *         2.84      0.59      2.10
 REAL TIME  *         4.10 SEC
 DISK USED  *       137.09 MB
 **********************************************************************************************************************************


 PROGRAM * PAPT (Closed-shell)     Authors: C. Hampel, H.-J. Werner, 1991, P.J. Knowles, 2021


 Convergence thresholds:  THRVAR = 1.00D-08  THRDEN = 1.00D-06

 Number of core orbitals:           5 (   3   2 )
 Number of closed-shell orbitals:  13 (   8   5 )
 Number of external orbitals:      82 (  45  37 )

 Molecular orbitals read from record     2100.2  Type=RHF/CANONICAL  

 Number of N-1 electron functions:              13
 Number of N-2 electron functions:              91
 Number of singly external CSFs:               545
 Number of doubly external CSFs:            284766
 Total number of CSFs:                      285312

 Length of J-op  integral file:               0.00 MB
 Length of K-op  integral file:               0.41 MB

 Integral transformation finished. Total CPU:   0.12 sec, npass=  1  Memory used:   0.60 MW

 Reference energy:                   -192.75034853

                        CORR.ENERGY   TOTAL ENERGY   ENERGY CHANGE
 MP2:                   -0.68214528  -193.43249381    -0.68214528

 SCS-MP2 correlation energy:           -0.66395510   (PS=  1.200000  PT=  0.333333)
 SCS-MP2 total energy:               -193.41430364
 Iteration:   1     0.2601D+00
 Iteration:   2     0.3470D+01
 Iteration:   3     0.7680D-01
 Iteration:   4     0.4031D+00
 Iteration:   5     0.2326D-01
 Iteration:   6     0.3030D-01
 Iteration:   7     0.1357D-01
 Iteration:   8     0.4706D-02
 Iteration:   9     0.3020D+00
 Iteration:  10     0.1063D-02
 Iteration:  11     0.1388D-02
 Iteration:  12     0.4741D-03
 Iteration:  13     0.2946D-03
 Iteration:  14     0.3504D-03
 Iteration:  15     0.8527D-04
 PAPT operator written to  7000.1
 PAPT orbitals and eigenvalues written to  7000.2

 MP3(D):                -0.71086867  -193.46121720    -0.02872339



 RESULTS
 =======

  Reference energy                   -192.750348531994
  MP3 singlet pair energy              -0.462891424438
  MP3 triplet pair energy              -0.247977248447
  MP3 correlation energy               -0.710868672886

 !MP3 total energy                   -193.461217204879

 Timing summary (sec):

 STEP                 CPU(USER)    SYS     CPU(TOT)    WALL
 Transformation          0.13      0.02      0.15      0.22
 CCSD iterations         4.22      0.05      4.27      1.19

 Program statistics:

 Available memory in ccsd:               805305681
 Min. memory needed in ccsd:                791466
 Max. memory used in ccsd:                 1033089
 Max. memory used in cckext:               1115577 ( 1 integral passes)



 **********************************************************************************************************************************
 DATASETS  * FILE   NREC   LENGTH (MB)   RECORD NAMES
              1      21       61.13       500      610      700      900      950      970     1000      129      960     1100   
                                          VAR    BASINP    GEOM    SYMINP    ZMAT    AOBASIS   BASIS     P2S    ABASIS      S 
                                         1400     1410     1200     1210     1080     1600     1650     1300     1700     1380   
                                           T        V       H0       H01     AOSYM     SMH    MOLCAS    ERIS     OPER     JKOP   
                                         7000   
                                        PAPT AO    

              2       5        0.85       700     1000      520     2100     7000   
                                         GEOM     BASIS   MCVARS     RHF     PAPT   

 PROGRAMS   *        TOTAL      PAPT    HF-SCF       INT
 CPU TIMES  *         4.13      1.29      0.59      2.10
 REAL TIME  *         5.56 SEC
 DISK USED  *       137.09 MB
 **********************************************************************************************************************************


 PROGRAM * MP4 (Closed-shell)     Authors: C. Hampel, H.-J. Werner, 1991, M. Deegan, P.J. Knowles, 1992


 Convergence thresholds:  THRVAR = 1.00D-08  THRDEN = 1.00D-06

 MP4(T)     terms to be evaluated (factor= 0.000)


 Number of core orbitals:           5 (   3   2 )
 Number of closed-shell orbitals:  13 (   8   5 )
 Number of external orbitals:      82 (  45  37 )

 Molecular orbitals read from record     7000.2  Type=PAPT/CANONICAL (state 1.1)

 Number of N-1 electron functions:              13
 Number of N-2 electron functions:              91
 Number of singly external CSFs:               545
 Number of doubly external CSFs:            284766
 Total number of CSFs:                      285312

 Length of J-op  integral file:               0.00 MB
 Length of K-op  integral file:               0.41 MB

 Memory could be reduced to 4.95 Mwords without degradation in triples

 Integral transformation finished. Total CPU:   0.36 sec, npass=  1  Memory used:   3.06 MW
 Orbital energies read from record       7000.2  Type=PAPT/CANONICAL (state 1.1)

 Reference energy:                   -192.75034853

                        CORR.ENERGY   TOTAL ENERGY   ENERGY CHANGE
 MP2:                   -0.71813336  -193.46848189    -0.71813336

 SCS-MP2 correlation energy:           -0.70407110   (PS=  1.200000  PT=  0.333333)
 SCS-MP2 total energy:               -193.45441963

 MP3(D):                -0.71845025  -193.46879878    -0.00031689
 MP4(DQ):               -0.71063338  -193.46098191     0.00781687
 MP4(SDQ):              -0.71541503  -193.46576356    -0.00478165

 Norm of t1 vector:      0.05861270      S-energy:    -0.00478165      T1 diagnostic:  0.00812812

 Largest off-diagonal element in interal  block of Fock matrix:  0.17D+00
 Largest off-diagonal element in external block of Fock matrix:  0.19D+00


 Total CPU time for triples:      4.68 sec


 RESULTS
 =======

  Reference energy                   -192.750348531994
  MP4(SDQ) singlet pair energy         -0.464354780127
  MP4(SDQ) triplet pair energy         -0.246278596299
  MP4(SDQ) correlation energy          -0.715415028363

  Triples contribution                 -0.035052380045
  Total correlation energy             -0.750467408408

  MP4(SDQ) total energy              -193.465763560357
 !MP4(SDTQ) total energy             -193.500815940402

 Timing summary (sec):

 STEP                 CPU(USER)    SYS     CPU(TOT)    WALL
 Transformation          0.42      0.05      0.47      0.50
 CCSD iterations         5.26      0.03      5.29      0.92
 Triples                 4.68      0.33      5.01      5.06

 Program statistics:

 Available memory in ccsd:               805305681
 Min. memory needed in ccsd:                791466
 Max. memory used in ccsd:                 1033089
 Max. memory used in cckext:               1115577 ( 1 integral passes)



 **********************************************************************************************************************************
 DATASETS  * FILE   NREC   LENGTH (MB)   RECORD NAMES
              1      22       74.97       500      610      700      900      950      970     1000      129      960     1100   
                                          VAR    BASINP    GEOM    SYMINP    ZMAT    AOBASIS   BASIS     P2S    ABASIS      S 
                                         1400     1410     1200     1210     1080     1600     1650     1300     1700     1380   
                                           T        V       H0       H01     AOSYM     SMH    MOLCAS    ERIS     OPER     JKOP   
                                         7000     1380(1)
                                        PAPT AO   JKOP   

              2       5        0.85       700     1000      520     2100     7000   
                                         GEOM     BASIS   MCVARS     RHF     PAPT   

 PROGRAMS   *        TOTAL       MP4      PAPT    HF-SCF       INT
 CPU TIMES  *        10.15      6.01      1.29      0.59      2.10
 REAL TIME  *        12.08 SEC
 DISK USED  *       137.09 MB
 **********************************************************************************************************************************

 Dump information in style XML to xml output                                                                      

 Orbitals will not be exported.

 **********************************************************************************************************************************

 MP4/cc-pVDZ energy=   -193.500815940402

             MP4            PAPT          HF-SCF
   -193.50081594   -193.46121720   -192.75034853
 **********************************************************************************************************************************
 Molpro calculation terminated
