
 Working directory              : /home/jovyan/scratch/molpro.mmfLbYV3Hc/
 Global scratch directory       : /home/jovyan/scratch/molpro.mmfLbYV3Hc/
 Wavefunction directory         : /home/jovyan/wfu/
 Main file repository           : /home/jovyan/scratch/molpro.mmfLbYV3Hc/

 id        : cardiff

 Nodes                nprocs
 jupyter-c-2efrancisan    1
 GA implementation: MPI file
 GA implementation (serial work in mppx): MPI file

 Using customized tuning parameters: mindgm=1; mindgv=20; mindgc=4; mindgr=1; noblas=0; minvec=7
 default implementation of scratch files=df  


 Variables initialized (1031), CPU time= 0.00 sec
 
 
 
 geometry={
 9
    O   -0.00020946572717      0.00033803651382      0.01009578182224
    C   1.37497499316945      0.00000551844024      0.01033708407522
    C   -1.37521529311648      0.00068147573508      0.00978328762624
    H   1.76662285429289      0.40690776018797     -0.93108108766811
    H   1.76646977000414      0.61379439668452      0.82991943080001
    H   1.77133317507623     -1.01663280776542      0.13037330987662
    H   -1.76877663711388     -1.01802185487210      0.12052409297504
    H   -1.76766318124667      0.60536823910385      0.83579583620894
    H   -1.76818302131116      0.41617320053097     -0.92733624303343
 }
 basis=cc-pVTZ
 angstrom
 
 
 hf; papt;mp4
 
 
 
 {put,xml;noorbitals,nobasis}
 Commands initialized (841), CPU time= 0.02 sec, 704 directives.
 Default parameters read. Elapsed time= 0.09 sec

 Checking input...
 Passed
1


                                         ***  PROGRAM SYSTEM MOLPRO  ***
                                       Copyright, TTI GmbH Stuttgart, 2015
                                    Version 2023.1 linked Mon Jun  5 13:27:10 2023


 **********************************************************************************************************************************
 LABEL *                                                                                                                                                                 
  (16 PROC) 64 bit serial version                                                        DATE: 02-Aug-23          TIME: 15:37:12  
 **********************************************************************************************************************************

 SHA1:             9738a14712571edd23541b6d7c4f3a3d766f8287
 **********************************************************************************************************************************

 Memory per process:       805 MW
 Total memory per node:   1074 MW
 Total GA space:           268 MW

 GA preallocation disabled
 GA check enabled

 Geometry recognized as XYZ


 Variable memory set to 805.3 MW

 SETTING BASIS          =    CC-PVTZ


 Recomputing integrals since basis changed


 Using spherical harmonics

 Library entry O      S cc-pVTZ              selected for orbital group  1
 Library entry O      P cc-pVTZ              selected for orbital group  1
 Library entry O      D cc-pVTZ              selected for orbital group  1
 Library entry O      F cc-pVTZ              selected for orbital group  1
 Library entry C      S cc-pVTZ              selected for orbital group  2
 Library entry C      P cc-pVTZ              selected for orbital group  2
 Library entry C      D cc-pVTZ              selected for orbital group  2
 Library entry C      F cc-pVTZ              selected for orbital group  2
 Library entry H      S cc-pVTZ              selected for orbital group  3
 Library entry H      P cc-pVTZ              selected for orbital group  3
 Library entry H      D cc-pVTZ              selected for orbital group  3


 PROGRAM * SEWARD (Integral evaluation for generally contracted gaussian basis sets)     Author: Roland Lindh, 1990

 Geometry written to block  1 of record 700


 Point group  C1  



 ATOMIC COORDINATES

 NR  ATOM    CHARGE       X              Y              Z

   1  O       8.00   -0.000395833    0.000638796    0.019078263
   2  C       6.00    2.598326165    0.000010428    0.019534258
   3  C       6.00   -2.598780266    0.001287802    0.018487734
   4  H       1.00    3.338433360    0.768944225   -1.759488256
   5  H       1.00    3.338144073    1.159903307    1.568320430
   6  H       1.00    3.347334576   -1.921157576    0.246369850
   7  H       1.00   -3.342503420   -1.923782495    0.227757527
   8  H       1.00   -3.340399293    1.143980176    1.579425227
   9  H       1.00   -3.341381648    0.786453369   -1.752411525

 Bond lengths in Bohr (Angstrom)

 1-2  2.598722114  1-3  2.598384582  2-4  2.074593682  2-5  2.071574433  2-6  2.074452816
     ( 1.375184520)     ( 1.375005906)     ( 1.097827698)     ( 1.096229981)     ( 1.097753155)

 3-7  2.074322449  3-8  2.071779548  3-9  2.074614655
     ( 1.097684168)     ( 1.096338523)     ( 1.097838797)

 Bond angles

  1-2-4  110.88588943   1-2-5  110.92368252   1-2-6  111.18043748   1-3-7  110.99479396

  1-3-8  110.97305328   1-3-9  110.99185089   2-1-3  179.99699720   4-2-5  107.82970004

  4-2-6  107.95171405   5-2-6  107.92900765   7-3-8  107.90938501   7-3-9  107.99964937

  8-3-9  107.83375188

 NUCLEAR CHARGE:                   26
 NUMBER OF PRIMITIVE AOS:         243
 NUMBER OF SYMMETRY AOS:          222
 NUMBER OF CONTRACTIONS:          174   (  174A   )
 NUMBER OF INNER CORE ORBITALS:     0   (    0A   )
 NUMBER OF OUTER CORE ORBITALS:     3   (    3A   )
 NUMBER OF VALENCE ORBITALS:       18   (   18A   )


 NUCLEAR REPULSION ENERGY   82.46500097


 Eigenvalues of metric

         1 0.132E-02 0.133E-02 0.174E-02 0.174E-02 0.200E-02 0.201E-02 0.264E-02 0.280E-02


 Contracted 2-electron integrals neglected if value below      1.0D-11
 AO integral compression algorithm  1   Integral accuracy      1.0D-11

     433.324 MB (compressed) written to integral file ( 42.9%)


 NUMBER OF SORTED TWO-ELECTRON INTEGRALS:  115907925.     BUFFER LENGTH:  32768
 NUMBER OF SEGMENTS:   8  SEGMENT LENGTH:   15999503      RECORD LENGTH: 524288

 Memory used in sort:      16.56 MW

 SORT1 READ   126112358. AND WROTE   103794223. INTEGRALS IN    301 RECORDS. CPU TIME:     1.56 SEC, REAL TIME:     4.02 SEC
 SORT2 READ   103794223. AND WROTE   115907925. INTEGRALS IN   1653 RECORDS. CPU TIME:     2.11 SEC, REAL TIME:     3.08 SEC

 FILE SIZES:   FILE 1:   464.6 MBYTE,  FILE 4:  1262.6 MBYTE,   TOTAL:   1727.1 MBYTE

 OPERATOR DM      FOR CENTER  0  COORDINATES:    0.000000    0.000000    0.000000


 **********************************************************************************************************************************
 DATASETS  * FILE   NREC   LENGTH (MB)   RECORD NAMES
              1      19      402.38       500      610      700      900      950      970     1000      129      960     1100   
                                          VAR    BASINP    GEOM    SYMINP    ZMAT    AOBASIS   BASIS     P2S    ABASIS      S 
                                         1400     1410     1200     1210     1080     1600     1650     1300     1700   
                                           T        V       H0       H01     AOSYM     SMH    MOLCAS    ERIS     OPER   

 PROGRAMS   *        TOTAL       INT
 CPU TIMES  *        11.24     11.09
 REAL TIME  *        18.10 SEC
 DISK USED  *         1.61 GB
 **********************************************************************************************************************************


 Program * Restricted Hartree-Fock

 Orbital guess generated from atomic densities. Full valence occupancy:   21

 Initial occupancy:  13

 NELEC=   26   SYM=1   MS2= 0   THRE=1.0D-08   THRD=3.2D-06   THRG=3.2D-06  HFMA2=F  DIIS_START=2   DIIS_MAX=10   DIIS_INCORE=F

 Level shifts:    0.00 (CLOSED)    0.00 (OPEN)    0.30 (GAP_MIN)

 ITER           ETOT              DE          GRAD        DDIFF     DIIS  NEXP   TIME(IT)  TIME(TOT)  DIAG
   1     -154.03741161    -154.03741161     0.00D+00     0.56D-01     0     0       1.28      2.52    start
   2     -154.06472752      -0.02731591     0.39D-02     0.47D-02     1     0       1.30      3.82    diag
   3     -154.07025816      -0.00553064     0.19D-02     0.15D-02     2     0       1.31      5.13    diag
   4     -154.07095325      -0.00069509     0.54D-03     0.60D-03     3     0       1.29      6.42    diag
   5     -154.07096975      -0.00001650     0.62D-04     0.13D-03     4     0       1.28      7.70    diag
   6     -154.07097052      -0.00000076     0.15D-04     0.27D-04     5     0       1.29      8.99    diag
   7     -154.07097058      -0.00000006     0.41D-05     0.91D-05     6     0       1.30     10.29    diag
   8     -154.07097058      -0.00000000     0.57D-06     0.13D-05     7     0       1.29     11.58    fixocc
   9     -154.07097058      -0.00000000     0.96D-07     0.13D-06     0     0       1.28     12.86    diag

 Final occupancy:  13

 !RHF STATE 1.1 Energy               -154.070970576525
  RHF One-electron energy            -372.813164290569
  RHF Two-electron energy             136.277192745610
  RHF Kinetic energy                  153.880168682008
  RHF Nuclear energy                   82.465000968435
  RHF Virial quotient                  -1.001239938168

 !RHF STATE 1.1 Dipole moment           0.00047002     0.00073499     0.00110153
 Dipole moment /Debye                   0.00119466     0.00186817     0.00279982

 Orbital energies:

           1.1          2.1          3.1          4.1          5.1          6.1          7.1          8.1          9.1         10.1
    -20.506035   -11.286023   -11.285975    -1.352382    -0.999249    -0.845291    -0.653659    -0.645677    -0.645552    -0.560879

          11.1         12.1         13.1         14.1         15.1
     -0.560617    -0.394126    -0.393933     0.137095     0.171409


 HOMO     13.1    -0.393933 =     -10.7195eV
 LUMO     14.1     0.137095 =       3.7305eV
 LUMO-HOMO         0.531028 =      14.4500eV

 Orbitals saved in record  2100.2


 **********************************************************************************************************************************
 DATASETS  * FILE   NREC   LENGTH (MB)   RECORD NAMES
              1      19      402.38       500      610      700      900      950      970     1000      129      960     1100   
                                          VAR    BASINP    GEOM    SYMINP    ZMAT    AOBASIS   BASIS     P2S    ABASIS      S 
                                         1400     1410     1200     1210     1080     1600     1650     1300     1700   
                                           T        V       H0       H01     AOSYM     SMH    MOLCAS    ERIS     OPER   

              2       4        1.00       700     1000      520     2100   
                                         GEOM     BASIS   MCVARS     RHF  

 PROGRAMS   *        TOTAL    HF-SCF       INT
 CPU TIMES  *        24.12     12.87     11.09
 REAL TIME  *        36.74 SEC
 DISK USED  *         1.61 GB
 **********************************************************************************************************************************


 PROGRAM * PAPT (Closed-shell)     Authors: C. Hampel, H.-J. Werner, 1991, P.J. Knowles, 2021


 Convergence thresholds:  THRVAR = 1.00D-08  THRDEN = 1.00D-06

 Number of core orbitals:           3 (   3 )
 Number of closed-shell orbitals:  10 (  10 )
 Number of external orbitals:     161 ( 161 )

 Molecular orbitals read from record     2100.2  Type=RHF/CANONICAL  

 Number of N-1 electron functions:              10
 Number of N-2 electron functions:              55
 Number of singly external CSFs:              1610
 Number of doubly external CSFs:           1296855
 Total number of CSFs:                     1298466

 Length of J-op  integral file:               0.00 MB
 Length of K-op  integral file:               2.14 MB

 Integral transformation finished. Total CPU:   2.43 sec, npass=  1  Memory used:   3.45 MW

 Reference energy:                   -154.07097058

                        CORR.ENERGY   TOTAL ENERGY   ENERGY CHANGE
 MP2:                   -0.59349946  -154.66447004    -0.59349946

 SCS-MP2 correlation energy:           -0.59655333   (PS=  1.200000  PT=  0.333333)
 SCS-MP2 total energy:               -154.66752391
 Iteration:   1     0.2002D+00
 Iteration:   2     0.2707D+00
 Iteration:   3     0.4343D-01
 Iteration:   4     0.3715D-01
 Iteration:   5     0.3064D-01
 Iteration:   6     0.8940D-02
 Iteration:   7     0.4839D-01
 Iteration:   8     0.3876D-02
 Iteration:   9     0.1990D-02
 Iteration:  10     0.1665D-01
 Iteration:  11     0.4204D-03
 Iteration:  12     0.3635D-03
 Iteration:  13     0.3760D-03
 Iteration:  14     0.9045D-04
 PAPT operator written to  7000.1
 PAPT orbitals and eigenvalues written to  7000.2

 MP3(D):                -0.61869721  -154.68966778    -0.02519774



 RESULTS
 =======

  Reference energy                   -154.070970576525
  MP3 singlet pair energy              -0.430585799033
  MP3 triplet pair energy              -0.188111406563
  MP3 correlation energy               -0.618697205596

 !MP3 total energy                   -154.689667782121

 Timing summary (sec):

 STEP                 CPU(USER)    SYS     CPU(TOT)    WALL
 Transformation          2.55      0.16      2.71      3.22
 CCSD iterations        35.46      0.23     35.69     12.45

 Program statistics:

 Available memory in ccsd:               805305955
 Min. memory needed in ccsd:               3599928
 Max. memory used in ccsd:                 4724433
 Max. memory used in cckext:               3598628 ( 1 integral passes)



 **********************************************************************************************************************************
 DATASETS  * FILE   NREC   LENGTH (MB)   RECORD NAMES
              1      21      422.05       500      610      700      900      950      970     1000      129      960     1100   
                                          VAR    BASINP    GEOM    SYMINP    ZMAT    AOBASIS   BASIS     P2S    ABASIS      S 
                                         1400     1410     1200     1210     1080     1600     1650     1300     1700     1380   
                                           T        V       H0       H01     AOSYM     SMH    MOLCAS    ERIS     OPER     JKOP   
                                         7000   
                                        PAPT AO    

              2       5        1.79       700     1000      520     2100     7000   
                                         GEOM     BASIS   MCVARS     RHF     PAPT   

 PROGRAMS   *        TOTAL      PAPT    HF-SCF       INT
 CPU TIMES  *        37.71     13.59     12.87     11.09
 REAL TIME  *        52.54 SEC
 DISK USED  *         1.61 GB
 **********************************************************************************************************************************


 PROGRAM * MP4 (Closed-shell)     Authors: C. Hampel, H.-J. Werner, 1991, M. Deegan, P.J. Knowles, 1992


 Convergence thresholds:  THRVAR = 1.00D-08  THRDEN = 1.00D-06

 MP4(T)     terms to be evaluated (factor= 0.000)


 Number of core orbitals:           3 (   3 )
 Number of closed-shell orbitals:  10 (  10 )
 Number of external orbitals:     161 ( 161 )

 Molecular orbitals read from record     7000.2  Type=PAPT/CANONICAL (state 1.1)

 Number of N-1 electron functions:              10
 Number of N-2 electron functions:              55
 Number of singly external CSFs:              1610
 Number of doubly external CSFs:           1296855
 Total number of CSFs:                     1298466

 Length of J-op  integral file:               0.00 MB
 Length of K-op  integral file:               2.14 MB

 Memory could be reduced to 55.75 Mwords without degradation in triples

 Integral transformation finished. Total CPU:   5.66 sec, npass=  1  Memory used:  32.59 MW
 Orbital energies read from record       7000.2  Type=PAPT/CANONICAL (state 1.1)

 Reference energy:                   -154.07097058

                        CORR.ENERGY   TOTAL ENERGY   ENERGY CHANGE
 MP2:                   -0.62606617  -154.69703675    -0.62606617

 SCS-MP2 correlation energy:           -0.63287241   (PS=  1.200000  PT=  0.333333)
 SCS-MP2 total energy:               -154.70384299

 MP3(D):                -0.62648909  -154.69745966    -0.00042292
 MP4(DQ):               -0.61994942  -154.69092000     0.00653966
 MP4(SDQ):              -0.62412301  -154.69509358    -0.00417358

 Norm of t1 vector:      0.05056340      S-energy:    -0.00417358      T1 diagnostic:  0.00799478

 Largest off-diagonal element in interal  block of Fock matrix:  0.15D+00
 Largest off-diagonal element in external block of Fock matrix:  0.41D+00


 Total CPU time for triples:    109.07 sec


 RESULTS
 =======

  Reference energy                   -154.070970576525
  MP4(SDQ) singlet pair energy         -0.432634645321
  MP4(SDQ) triplet pair energy         -0.187314778151
  MP4(SDQ) correlation energy          -0.624123005461

  Triples contribution                 -0.024200838372
  Total correlation energy             -0.648323843833

  MP4(SDQ) total energy              -154.695093581986
 !MP4(SDTQ) total energy             -154.719294420358

 Timing summary (sec):

 STEP                 CPU(USER)    SYS     CPU(TOT)    WALL
 Transformation          7.09      0.65      7.74      8.55
 CCSD iterations        47.58      0.22     47.80     10.03
 Triples               109.07      3.63    112.70    120.60

 Program statistics:

 Available memory in ccsd:               805305955
 Min. memory needed in ccsd:               3599928
 Max. memory used in ccsd:                 4724433
 Max. memory used in cckext:               3598628 ( 1 integral passes)



 **********************************************************************************************************************************
 DATASETS  * FILE   NREC   LENGTH (MB)   RECORD NAMES
              1      22      582.24       500      610      700      900      950      970     1000      129      960     1100   
                                          VAR    BASINP    GEOM    SYMINP    ZMAT    AOBASIS   BASIS     P2S    ABASIS      S 
                                         1400     1410     1200     1210     1080     1600     1650     1300     1700     1380   
                                           T        V       H0       H01     AOSYM     SMH    MOLCAS    ERIS     OPER     JKOP   
                                         7000     1380(1)
                                        PAPT AO   JKOP   

              2       5        1.79       700     1000      520     2100     7000   
                                         GEOM     BASIS   MCVARS     RHF     PAPT   

 PROGRAMS   *        TOTAL       MP4      PAPT    HF-SCF       INT
 CPU TIMES  *       163.44    125.73     13.59     12.87     11.09
 REAL TIME  *       193.40 SEC
 DISK USED  *         1.61 GB
 **********************************************************************************************************************************

 Dump information in style XML to xml output                                                                      

 Orbitals will not be exported.

 **********************************************************************************************************************************

 MP4/cc-pVTZ energy=   -154.719294420358

             MP4            PAPT          HF-SCF
   -154.71929442   -154.68966778   -154.07097058
 **********************************************************************************************************************************
 Molpro calculation terminated
