
 Working directory              : /home/jovyan/scratch/molpro.huW7B8o3L2/
 Global scratch directory       : /home/jovyan/scratch/molpro.huW7B8o3L2/
 Wavefunction directory         : /home/jovyan/wfu/
 Main file repository           : /home/jovyan/scratch/molpro.huW7B8o3L2/

 id        : cardiff

 Nodes                nprocs
 jupyter-c-2efrancisan    1
 GA implementation: MPI file
 GA implementation (serial work in mppx): MPI file

 Using customized tuning parameters: mindgm=1; mindgv=20; mindgc=4; mindgr=1; noblas=0; minvec=7
 default implementation of scratch files=df  


 Variables initialized (1031), CPU time= 0.00 sec
 
 
 
 geometry={
           10
     H          0.00000000     -1.42064151      1.71659501
     C          0.00000000      0.67017024      0.92994073
     C          0.00000000     -0.67017024      0.92994073
     C          0.00000000      0.78631128     -0.58457581
     C          0.00000000     -0.78631128     -0.58457581
     H          0.89010932     -1.24659944     -1.03097997
     H         -0.89010932     -1.24659944     -1.03097997
     H          0.00000000      1.42064151      1.71659501
     H         -0.89010932      1.24659944     -1.03097997
     H          0.89010932      1.24659944     -1.03097997
 }
 basis=cc-pVDZ
 angstrom
 
 
 hf; mp4
 
 
 
 {put,xml;noorbitals,nobasis}
 Commands initialized (841), CPU time= 0.01 sec, 704 directives.
 Default parameters read. Elapsed time= 0.08 sec

 Checking input...
 Passed
1


                                         ***  PROGRAM SYSTEM MOLPRO  ***
                                       Copyright, TTI GmbH Stuttgart, 2015
                                    Version 2023.1 linked Mon Jun  5 13:27:10 2023


 **********************************************************************************************************************************
 LABEL *                                                                                                                                                                 
  (16 PROC) 64 bit serial version                                                        DATE: 03-Aug-23          TIME: 10:21:26  
 **********************************************************************************************************************************

 SHA1:             9738a14712571edd23541b6d7c4f3a3d766f8287
 **********************************************************************************************************************************

 Memory per process:       805 MW
 Total memory per node:   1074 MW
 Total GA space:           268 MW

 GA preallocation disabled
 GA check enabled

 Geometry recognized as XYZ


 Variable memory set to 805.3 MW

 SETTING BASIS          =    CC-PVDZ


 Recomputing integrals since basis changed


 Using spherical harmonics

 Library entry H      S cc-pVDZ              selected for orbital group  1
 Library entry H      P cc-pVDZ              selected for orbital group  1
 Library entry C      S cc-pVDZ              selected for orbital group  2
 Library entry C      P cc-pVDZ              selected for orbital group  2
 Library entry C      D cc-pVDZ              selected for orbital group  2


 PROGRAM * SEWARD (Integral evaluation for generally contracted gaussian basis sets)     Author: Roland Lindh, 1990

 Geometry written to block  1 of record 700


 Point group  C2v 



 ATOMIC COORDINATES

 NR  ATOM    CHARGE       X              Y              Z

   1  H       1.00    0.000000000   -2.684623375    3.243894436
   2  H       1.00    0.000000000    2.684623375    3.243894436
   3  C       6.00    0.000000000    1.266438210    1.757333292
   4  C       6.00    0.000000000   -1.266438210    1.757333292
   5  C       6.00    0.000000000    1.485912968   -1.104688180
   6  C       6.00    0.000000000   -1.485912968   -1.104688180
   7  H       1.00    1.682062836   -2.355731529   -1.948269783
   8  H       1.00   -1.682062836   -2.355731529   -1.948269783
   9  H       1.00   -1.682062836    2.355731529   -1.948269783
  10  H       1.00    1.682062836    2.355731529   -1.948269783

 Bond lengths in Bohr (Angstrom)

 1-4  2.054534788  2-3  2.054534788  3-4  2.532876421  3-5  2.870424372  3-6  3.970718312
     ( 1.087212989)     ( 1.087212989)     ( 1.340340480)     ( 1.518963163)     ( 2.101213642)

  4- 5  3.970718312   4- 6  2.870424372   5- 6  2.971825936   5- 9  2.073053215   5-10  2.073053215
       ( 2.101213642)       ( 1.518963163)       ( 1.572622560)       ( 1.097012519)       ( 1.097012519)

 6-7  2.073053215  6-8  2.073053215
     ( 1.097012519)     ( 1.097012519)

 Bond angles

  1-4-3  133.65154087   1-4-5  179.77060551   1-4-6  131.96330183   2-3-4  133.65154087

  2-3-5  131.96330183   2-3-6  179.77060551   3-4-5   46.11906464   3-4-6   94.38515730

  3- 5- 4   39.49577806   3- 5- 6   85.61484270   3- 5- 9  115.96471444   3- 5-10  115.96471444

  3-6-4   39.49577806   3-6-5   46.11906464   3-6-7  125.74260410   3-6-8  125.74260410

  4-3-5   94.38515730   4-3-6   46.11906464   4-5-6   46.11906464   4-5-9  125.74260410

  4- 5-10  125.74260410   4- 6- 5   85.61484270   4- 6- 7  115.96471444   4- 6- 8  115.96471444

  5-3-6   48.26609266   5-4-6   48.26609266   5-6-7  114.80828385   5-6-8  114.80828385

  6- 5- 9  114.80828385   6- 5-10  114.80828385   7- 6- 8  108.46469695   9- 5-10  108.46469695

 NUCLEAR CHARGE:                   30
 NUMBER OF PRIMITIVE AOS:         150
 NUMBER OF SYMMETRY AOS:          146
 NUMBER OF CONTRACTIONS:           86   (   29A1  +   14B1  +   29B2  +   14A2  )
 NUMBER OF INNER CORE ORBITALS:     0   (    0A1  +    0B1  +    0B2  +    0A2  )
 NUMBER OF OUTER CORE ORBITALS:     4   (    2A1  +    0B1  +    2B2  +    0A2  )
 NUMBER OF VALENCE ORBITALS:       22   (    8A1  +    3B1  +    8B2  +    3A2  )


 NUCLEAR REPULSION ENERGY  112.98875052

 Eigenvalues of metric

         1 0.650E-02 0.185E-01 0.263E-01 0.419E-01 0.471E-01 0.709E-01 0.908E-01 0.121E+00
         2 0.398E-01 0.532E-01 0.133E+00 0.187E+00 0.384E+00 0.553E+00 0.685E+00 0.958E+00
         3 0.764E-03 0.525E-02 0.170E-01 0.210E-01 0.262E-01 0.304E-01 0.431E-01 0.649E-01
         4 0.173E-01 0.322E-01 0.892E-01 0.130E+00 0.254E+00 0.306E+00 0.383E+00 0.470E+00


 Contracted 2-electron integrals neglected if value below      1.0D-11
 AO integral compression algorithm  1   Integral accuracy      1.0D-11

     11.010 MB (compressed) written to integral file ( 56.6%)


 NUMBER OF SORTED TWO-ELECTRON INTEGRALS:    1844148.     BUFFER LENGTH:  32768
 NUMBER OF SEGMENTS:   1  SEGMENT LENGTH:    1844148      RECORD LENGTH: 524288

 Memory used in sort:       2.40 MW

 SORT1 READ     2479064. AND WROTE     1818984. INTEGRALS IN      6 RECORDS. CPU TIME:     0.05 SEC, REAL TIME:     0.40 SEC
 SORT2 READ     1818984. AND WROTE     1844148. INTEGRALS IN     42 RECORDS. CPU TIME:     0.10 SEC, REAL TIME:     0.11 SEC

 FILE SIZES:   FILE 1:    41.3 MBYTE,  FILE 4:    25.2 MBYTE,   TOTAL:     66.6 MBYTE

 OPERATOR DM      FOR CENTER  0  COORDINATES:    0.000000    0.000000    0.000000


 **********************************************************************************************************************************
 DATASETS  * FILE   NREC   LENGTH (MB)   RECORD NAMES
              1      19       36.85       500      610      700      900      950      970     1000      129      960     1100   
                                          VAR    BASINP    GEOM    SYMINP    ZMAT    AOBASIS   BASIS     P2S    ABASIS      S 
                                         1400     1410     1200     1210     1080     1600     1650     1300     1700   
                                           T        V       H0       H01     AOSYM     SMH    MOLCAS    ERIS     OPER   

 PROGRAMS   *        TOTAL       INT
 CPU TIMES  *         1.38      1.25
 REAL TIME  *         2.79 SEC
 DISK USED  *        63.97 MB
 **********************************************************************************************************************************


 Program * Restricted Hartree-Fock

 Orbital guess generated from atomic densities. Full valence occupancy:   10   3  10   3

 Initial occupancy:   7   2   5   1

 NELEC=   30   SYM=1   MS2= 0   THRE=1.0D-08   THRD=3.2D-06   THRG=3.2D-06  HFMA2=F  DIIS_START=2   DIIS_MAX=10   DIIS_INCORE=F

 Level shifts:    0.00 (CLOSED)    0.00 (OPEN)    0.30 (GAP_MIN)

 ITER           ETOT              DE          GRAD        DDIFF     DIIS  NEXP   TIME(IT)  TIME(TOT)  DIAG
   1     -154.86965057    -154.86965057     0.00D+00     0.21D+00     0     0       0.01      0.02    start
   2     -154.90675094      -0.03710037     0.89D-02     0.19D-01     1     0       0.01      0.03    diag
   3     -154.91113631      -0.00438537     0.33D-02     0.71D-02     2     0       0.01      0.04    diag
   4     -154.91190217      -0.00076586     0.12D-02     0.26D-02     3     0       0.01      0.05    diag
   5     -154.91191807      -0.00001590     0.14D-03     0.56D-03     4     0       0.01      0.06    diag
   6     -154.91191893      -0.00000086     0.41D-04     0.91D-04     5     0       0.01      0.07    diag
   7     -154.91191900      -0.00000007     0.10D-04     0.31D-04     6     0       0.01      0.08    diag
   8     -154.91191901      -0.00000000     0.18D-05     0.55D-05     7     0       0.01      0.09    fixocc
   9     -154.91191901      -0.00000000     0.38D-06     0.14D-05     8     0       0.01      0.10    diag
  10     -154.91191901      -0.00000000     0.56D-07     0.13D-06     0     0       0.01      0.11    diag/orth

 Final occupancy:   7   2   5   1

 !RHF STATE 1.1 Energy               -154.911919005902
  RHF One-electron energy            -431.534663131709
  RHF Two-electron energy             163.633993601090
  RHF Kinetic energy                  154.699276367194
  RHF Nuclear energy                  112.988750524717
  RHF Virial quotient                  -1.001374554838

 !RHF STATE 1.1 Dipole moment           0.00000000     0.00000000    -0.02030540
 Dipole moment /Debye                   0.00000000     0.00000000    -0.05161119

 Orbital energies:

           1.1          2.1          3.1          4.1          5.1          6.1          7.1          8.1          9.1
    -11.232594   -11.231939    -1.143994    -0.895929    -0.671004    -0.529992    -0.460765     0.196911     0.225505

           1.2          2.2          3.2          4.2
     -0.619113    -0.348909     0.235886     0.628412

           1.3          2.3          3.3          4.3          5.3          6.3          7.3
    -11.231749   -11.230703    -0.875244    -0.705108    -0.453282     0.230642     0.251063

           1.4          2.4          3.4
     -0.503012     0.176975     0.306939


 HOMO      2.2    -0.348909 =      -9.4943eV
 LUMO      2.4     0.176975 =       4.8157eV
 LUMO-HOMO         0.525884 =      14.3100eV

 Orbitals saved in record  2100.2


 **********************************************************************************************************************************
 DATASETS  * FILE   NREC   LENGTH (MB)   RECORD NAMES
              1      19       36.85       500      610      700      900      950      970     1000      129      960     1100   
                                          VAR    BASINP    GEOM    SYMINP    ZMAT    AOBASIS   BASIS     P2S    ABASIS      S 
                                         1400     1410     1200     1210     1080     1600     1650     1300     1700   
                                           T        V       H0       H01     AOSYM     SMH    MOLCAS    ERIS     OPER   

              2       4        0.57       700     1000      520     2100   
                                         GEOM     BASIS   MCVARS     RHF  

 PROGRAMS   *        TOTAL    HF-SCF       INT
 CPU TIMES  *         1.49      0.11      1.25
 REAL TIME  *         3.01 SEC
 DISK USED  *        63.97 MB
 **********************************************************************************************************************************


 PROGRAM * MP4 (Closed-shell)     Authors: C. Hampel, H.-J. Werner, 1991, M. Deegan, P.J. Knowles, 1992


 Convergence thresholds:  THRVAR = 1.00D-08  THRDEN = 1.00D-06

 MP4(T)     terms to be evaluated (factor= 0.000)


 Number of core orbitals:           4 (   2   0   2   0 )
 Number of closed-shell orbitals:  11 (   5   2   3   1 )
 Number of external orbitals:      71 (  22  12  24  13 )

 Molecular orbitals read from record     2100.2  Type=RHF/CANONICAL  

 Number of N-1 electron functions:              11
 Number of N-2 electron functions:              66
 Number of singly external CSFs:               219
 Number of doubly external CSFs:             78024
 Total number of CSFs:                       78244

 Length of J-op  integral file:               0.00 MB
 Length of K-op  integral file:               0.20 MB

 Memory could be reduced to 1.43 Mwords without degradation in triples

 Integral transformation finished. Total CPU:   0.05 sec, npass=  1  Memory used:   0.46 MW

 Reference energy:                   -154.91191901

                        CORR.ENERGY   TOTAL ENERGY   ENERGY CHANGE
 MP2:                   -0.54339472  -155.45531373    -0.54339472

 SCS-MP2 correlation energy:           -0.53929971   (PS=  1.200000  PT=  0.333333)
 SCS-MP2 total energy:               -155.45121871

 MP3(D):                -0.58056623  -155.49248524    -0.03717151
 MP4(DQ):               -0.58242584  -155.49434485    -0.00185961
 MP4(SDQ):              -0.58582317  -155.49774218    -0.00339733

 Norm of t1 vector:      0.04676242      S-energy:    -0.00339733      T1 diagnostic:  0.00704970


 Total CPU time for triples:      0.88 sec


 RESULTS
 =======

  Reference energy                   -154.911919005902
  MP4(SDQ) singlet pair energy         -0.398101149231
  MP4(SDQ) triplet pair energy         -0.184324694206
  MP4(SDQ) correlation energy          -0.585823169513

  Triples contribution                 -0.020294567081
  Total correlation energy             -0.606117736594

  MP4(SDQ) total energy              -155.497742175415
 !MP4(SDTQ) total energy             -155.518036742496

 Timing summary (sec):

 STEP                 CPU(USER)    SYS     CPU(TOT)    WALL
 Transformation          0.06      0.02      0.08      0.18
 CCSD iterations         1.88      0.01      1.89      0.17
 Triples                 0.88      0.05      0.93      0.93

 Program statistics:

 Available memory in ccsd:               805305877
 Min. memory needed in ccsd:                231287
 Max. memory used in ccsd:                  295227
 Max. memory used in cckext:                322301 ( 1 integral passes)



 **********************************************************************************************************************************
 DATASETS  * FILE   NREC   LENGTH (MB)   RECORD NAMES
              1      20       42.20       500      610      700      900      950      970     1000      129      960     1100   
                                          VAR    BASINP    GEOM    SYMINP    ZMAT    AOBASIS   BASIS     P2S    ABASIS      S 
                                         1400     1410     1200     1210     1080     1600     1650     1300     1700     1380   
                                           T        V       H0       H01     AOSYM     SMH    MOLCAS    ERIS     OPER     JKOP   

              2       4        0.57       700     1000      520     2100   
                                         GEOM     BASIS   MCVARS     RHF  

 PROGRAMS   *        TOTAL       MP4    HF-SCF       INT
 CPU TIMES  *         2.60      1.11      0.11      1.25
 REAL TIME  *         4.33 SEC
 DISK USED  *        63.97 MB
 **********************************************************************************************************************************

 Dump information in style XML to xml output                                                                      

 Orbitals will not be exported.

 **********************************************************************************************************************************

 MP4/cc-pVDZ energy=   -155.518036742496

             MP4          HF-SCF
   -155.51803674   -154.91191901
 **********************************************************************************************************************************
 Molpro calculation terminated
