
 Working directory              : /home/jovyan/scratch/molpro.5MJkWZDpW0/
 Global scratch directory       : /home/jovyan/scratch/molpro.5MJkWZDpW0/
 Wavefunction directory         : /home/jovyan/wfu/
 Main file repository           : /home/jovyan/scratch/molpro.5MJkWZDpW0/

 id        : cardiff

 Nodes                nprocs
 jupyter-c-2efrancisan    1
 GA implementation: MPI file
 GA implementation (serial work in mppx): MPI file

 Using customized tuning parameters: mindgm=1; mindgv=20; mindgc=4; mindgr=1; noblas=0; minvec=7
 default implementation of scratch files=df  


 Variables initialized (1031), CPU time= 0.00 sec
 
 
 
 geometry={
 7
  C 0.000000 0.000000 0.523306
  H 0.000000 0.000000 1.609625
  N 0.000000 1.054818 -0.264887
  H -0.314690 1.964618 0.041770
  H 0.000000 0.000000 -1.124591
  N 0.000000 -1.054818 -0.264887
  H 0.314690 -1.964618 0.041770
 }
 basis=cc-pVDZ
 angstrom
 
 
 hf; mp4
 
 
 
 {put,xml;noorbitals,nobasis}
 Commands initialized (841), CPU time= 0.01 sec, 704 directives.
 Default parameters read. Elapsed time= 0.18 sec

 Checking input...
 Passed
1


                                         ***  PROGRAM SYSTEM MOLPRO  ***
                                       Copyright, TTI GmbH Stuttgart, 2015
                                    Version 2023.1 linked Mon Jun  5 13:27:10 2023


 **********************************************************************************************************************************
 LABEL *                                                                                                                                                                 
  (16 PROC) 64 bit serial version                                                        DATE: 02-Aug-23          TIME: 15:37:38  
 **********************************************************************************************************************************

 SHA1:             9738a14712571edd23541b6d7c4f3a3d766f8287
 **********************************************************************************************************************************

 Memory per process:       805 MW
 Total memory per node:   1074 MW
 Total GA space:           268 MW

 GA preallocation disabled
 GA check enabled

 Geometry recognized as XYZ


 Variable memory set to 805.3 MW

 SETTING BASIS          =    CC-PVDZ


 Recomputing integrals since basis changed


 Using spherical harmonics

 Library entry C      S cc-pVDZ              selected for orbital group  1
 Library entry C      P cc-pVDZ              selected for orbital group  1
 Library entry C      D cc-pVDZ              selected for orbital group  1
 Library entry H      S cc-pVDZ              selected for orbital group  2
 Library entry H      P cc-pVDZ              selected for orbital group  2
 Library entry N      S cc-pVDZ              selected for orbital group  3
 Library entry N      P cc-pVDZ              selected for orbital group  3
 Library entry N      D cc-pVDZ              selected for orbital group  3


 PROGRAM * SEWARD (Integral evaluation for generally contracted gaussian basis sets)     Author: Roland Lindh, 1990

 Geometry written to block  1 of record 700


 Point group  C2  



 ATOMIC COORDINATES

 NR  ATOM    CHARGE       X              Y              Z

   1  C       6.00    0.000000000    0.000000000    0.988905019
   2  H       1.00    0.000000000    0.000000000    3.041750413
   3  N       7.00    0.000000000    1.993317131   -0.500563884
   4  N       7.00    0.000000000   -1.993317131   -0.500563884
   5  H       1.00   -0.594677914    3.712589960    0.078933860
   6  H       1.00    0.594677914   -3.712589960    0.078933860
   7  H       1.00    0.000000000    0.000000000   -2.125168992

 Bond lengths in Bohr (Angstrom)

 1-2  2.052845394  1-3  2.488338964  1-4  2.488338964  3-5  1.909282199  3-7  2.571508301
     ( 1.086319000)     ( 1.316772273)     ( 1.316772273)     ( 1.010348629)     ( 1.360783591)

 4-6  1.909282199  4-7  2.571508301
     ( 1.010348629)     ( 1.360783591)

 Bond angles

  1-3-5  122.66077070   1-3-7   75.94916157   1-4-6  122.66077070   1-4-7   75.94916157

  2-1-3  126.76823547   2-1-4  126.76823547   3-1-4  106.46352905   3-7-4  101.63814782

  5-3-7  152.84374691   6-4-7  152.84374691

 NUCLEAR CHARGE:                   24
 NUMBER OF PRIMITIVE AOS:         109
 NUMBER OF SYMMETRY AOS:          106
 NUMBER OF CONTRACTIONS:           62   (   33A   +   29B   )
 NUMBER OF INNER CORE ORBITALS:     0   (    0A   +    0B   )
 NUMBER OF OUTER CORE ORBITALS:     3   (    2A   +    1B   )
 NUMBER OF VALENCE ORBITALS:       16   (    9A   +    7B   )


 NUCLEAR REPULSION ENERGY   73.85249191

 Eigenvalues of metric

         1 0.399E-02 0.164E-01 0.263E-01 0.334E-01 0.419E-01 0.542E-01 0.657E-01 0.848E-01
         2 0.921E-02 0.307E-01 0.533E-01 0.741E-01 0.982E-01 0.103E+00 0.138E+00 0.161E+00


 Contracted 2-electron integrals neglected if value below      1.0D-11
 AO integral compression algorithm  1   Integral accuracy      1.0D-11

     4.719 MB (compressed) written to integral file ( 44.6%)


 NUMBER OF SORTED TWO-ELECTRON INTEGRALS:     984576.     BUFFER LENGTH:  32768
 NUMBER OF SEGMENTS:   1  SEGMENT LENGTH:     984576      RECORD LENGTH: 524288

 Memory used in sort:       1.54 MW

 SORT1 READ     1302664. AND WROTE      740961. INTEGRALS IN      3 RECORDS. CPU TIME:     0.02 SEC, REAL TIME:     0.21 SEC
 SORT2 READ      740961. AND WROTE      984576. INTEGRALS IN     18 RECORDS. CPU TIME:     0.05 SEC, REAL TIME:     0.12 SEC

 FILE SIZES:   FILE 1:    34.9 MBYTE,  FILE 4:    12.6 MBYTE,   TOTAL:     47.6 MBYTE

 OPERATOR DM      FOR CENTER  0  COORDINATES:    0.000000    0.000000    0.000000


 **********************************************************************************************************************************
 DATASETS  * FILE   NREC   LENGTH (MB)   RECORD NAMES
              1      19       32.18       500      610      700      900      950      970     1000      129      960     1100   
                                          VAR    BASINP    GEOM    SYMINP    ZMAT    AOBASIS   BASIS     P2S    ABASIS      S 
                                         1400     1410     1200     1210     1080     1600     1650     1300     1700   
                                           T        V       H0       H01     AOSYM     SMH    MOLCAS    ERIS     OPER   

 PROGRAMS   *        TOTAL       INT
 CPU TIMES  *         0.86      0.72
 REAL TIME  *         6.53 SEC
 DISK USED  *        45.78 MB
 **********************************************************************************************************************************


 Program * Restricted Hartree-Fock

 Orbital guess generated from atomic densities. Full valence occupancy:   11   8

 Initial occupancy:   7   5

 NELEC=   24   SYM=1   MS2= 0   THRE=1.0D-08   THRD=3.2D-06   THRG=3.2D-06  HFMA2=F  DIIS_START=2   DIIS_MAX=10   DIIS_INCORE=F

 Level shifts:    0.00 (CLOSED)    0.00 (OPEN)    0.30 (GAP_MIN)

 ITER           ETOT              DE          GRAD        DDIFF     DIIS  NEXP   TIME(IT)  TIME(TOT)  DIAG
   1     -148.96048415    -148.96048415     0.00D+00     0.20D+00     0     0       0.01      0.02    start
   2     -148.99098237      -0.03049822     0.11D-01     0.25D-01     1     0       0.01      0.03    diag
   3     -148.99790109      -0.00691872     0.49D-02     0.76D-02     2     0       0.00      0.03    diag
   4     -148.99858393      -0.00068284     0.13D-02     0.29D-02     3     0       0.01      0.04    diag
   5     -148.99862355      -0.00003962     0.22D-03     0.52D-03     4     0       0.01      0.05    diag
   6     -148.99863007      -0.00000652     0.98D-04     0.25D-03     5     0       0.01      0.06    diag
   7     -148.99863075      -0.00000067     0.27D-04     0.79D-04     6     0       0.01      0.07    diag
   8     -148.99863078      -0.00000003     0.59D-05     0.19D-04     7     0       0.00      0.07    fixocc
   9     -148.99863078      -0.00000000     0.13D-05     0.38D-05     8     0       0.01      0.08    diag
  10     -148.99863078      -0.00000000     0.38D-06     0.98D-06     9     0       0.01      0.09    diag/orth
  11     -148.99863078      -0.00000000     0.10D-06     0.22D-06     0     0       0.00      0.09    diag

 Final occupancy:   7   5

 !RHF STATE 1.1 Energy               -148.998630778137
  RHF One-electron energy            -348.239572585771
  RHF Two-electron energy             125.388449900182
  RHF Kinetic energy                  148.817540762897
  RHF Nuclear energy                   73.852491907452
  RHF Virial quotient                  -1.001216859345

 !RHF STATE 1.1 Dipole moment           0.00000000     0.00000000     0.83765444
 Dipole moment /Debye                   0.00000000     0.00000000     2.12910522

 Orbital energies:

           1.1          2.1          3.1          4.1          5.1          6.1          7.1          8.1          9.1
    -15.534224   -11.324636    -1.271012    -0.803492    -0.764746    -0.504484    -0.341815     0.189776     0.214876

           1.2          2.2          3.2          4.2          5.2          6.2          7.2
    -15.534269    -1.090429    -0.620312    -0.520147    -0.421770     0.186294     0.233012


 HOMO      7.1    -0.341815 =      -9.3013eV
 LUMO      6.2     0.186294 =       5.0693eV
 LUMO-HOMO         0.528108 =      14.3706eV

 Orbitals saved in record  2100.2


 **********************************************************************************************************************************
 DATASETS  * FILE   NREC   LENGTH (MB)   RECORD NAMES
              1      19       32.18       500      610      700      900      950      970     1000      129      960     1100   
                                          VAR    BASINP    GEOM    SYMINP    ZMAT    AOBASIS   BASIS     P2S    ABASIS      S 
                                         1400     1410     1200     1210     1080     1600     1650     1300     1700   
                                           T        V       H0       H01     AOSYM     SMH    MOLCAS    ERIS     OPER   

              2       4        0.51       700     1000      520     2100   
                                         GEOM     BASIS   MCVARS     RHF  

 PROGRAMS   *        TOTAL    HF-SCF       INT
 CPU TIMES  *         0.96      0.09      0.72
 REAL TIME  *         6.76 SEC
 DISK USED  *        45.78 MB
 **********************************************************************************************************************************


 PROGRAM * MP4 (Closed-shell)     Authors: C. Hampel, H.-J. Werner, 1991, M. Deegan, P.J. Knowles, 1992


 Convergence thresholds:  THRVAR = 1.00D-08  THRDEN = 1.00D-06

 MP4(T)     terms to be evaluated (factor= 0.000)


 Number of core orbitals:           3 (   2   1 )
 Number of closed-shell orbitals:   9 (   5   4 )
 Number of external orbitals:      50 (  26  24 )

 Molecular orbitals read from record     2100.2  Type=RHF/CANONICAL  

 Number of N-1 electron functions:               9
 Number of N-2 electron functions:              45
 Number of singly external CSFs:               226
 Number of doubly external CSFs:             50851
 Total number of CSFs:                       51078

 Length of J-op  integral file:               0.00 MB
 Length of K-op  integral file:               0.20 MB

 Memory could be reduced to 0.89 Mwords without degradation in triples

 Integral transformation finished. Total CPU:   0.04 sec, npass=  1  Memory used:   0.61 MW

 Reference energy:                   -148.99863078

                        CORR.ENERGY   TOTAL ENERGY   ENERGY CHANGE
 MP2:                   -0.49268434  -149.49131512    -0.49268434

 SCS-MP2 correlation energy:           -0.47971272   (PS=  1.200000  PT=  0.333333)
 SCS-MP2 total energy:               -149.47834349

 MP3(D):                -0.50412053  -149.50275130    -0.01143618
 MP4(DQ):               -0.50545872  -149.50408950    -0.00133819
 MP4(SDQ):              -0.51214678  -149.51077756    -0.00668806

 Norm of t1 vector:      0.08234607      S-energy:    -0.00668806      T1 diagnostic:  0.01372434


 Total CPU time for triples:      0.32 sec


 RESULTS
 =======

  Reference energy                   -148.998630778137
  MP4(SDQ) singlet pair energy         -0.328435985216
  MP4(SDQ) triplet pair energy         -0.177022734529
  MP4(SDQ) correlation energy          -0.512146782081

  Triples contribution                 -0.020864626302
  Total correlation energy             -0.533011408383

  MP4(SDQ) total energy              -149.510777560218
 !MP4(SDTQ) total energy             -149.531642186520

 Timing summary (sec):

 STEP                 CPU(USER)    SYS     CPU(TOT)    WALL
 Transformation          0.05      0.02      0.07      0.41
 CCSD iterations         1.42      0.00      1.42      0.18
 Triples                 0.32      0.02      0.34      0.36

 Program statistics:

 Available memory in ccsd:               805306037
 Min. memory needed in ccsd:                163757
 Max. memory used in ccsd:                  202937
 Max. memory used in cckext:                250009 ( 1 integral passes)



 **********************************************************************************************************************************
 DATASETS  * FILE   NREC   LENGTH (MB)   RECORD NAMES
              1      20       35.40       500      610      700      900      950      970     1000      129      960     1100   
                                          VAR    BASINP    GEOM    SYMINP    ZMAT    AOBASIS   BASIS     P2S    ABASIS      S 
                                         1400     1410     1200     1210     1080     1600     1650     1300     1700     1380   
                                           T        V       H0       H01     AOSYM     SMH    MOLCAS    ERIS     OPER     JKOP   

              2       4        0.51       700     1000      520     2100   
                                         GEOM     BASIS   MCVARS     RHF  

 PROGRAMS   *        TOTAL       MP4    HF-SCF       INT
 CPU TIMES  *         1.48      0.52      0.09      0.72
 REAL TIME  *         7.77 SEC
 DISK USED  *        45.78 MB
 **********************************************************************************************************************************

 Dump information in style XML to xml output                                                                      

 Orbitals will not be exported.

 **********************************************************************************************************************************

 MP4/cc-pVDZ energy=   -149.531642186520

             MP4          HF-SCF
   -149.53164219   -148.99863078
 **********************************************************************************************************************************
 Molpro calculation terminated
