
 Working directory              : /home/jovyan/scratch/molpro.lfIxDEIx3N/
 Global scratch directory       : /home/jovyan/scratch/molpro.lfIxDEIx3N/
 Wavefunction directory         : /home/jovyan/wfu/
 Main file repository           : /home/jovyan/scratch/molpro.lfIxDEIx3N/

 id        : cardiff

 Nodes                nprocs
 jupyter-c-2efrancisan    1
 GA implementation: MPI file
 GA implementation (serial work in mppx): MPI file

 Using customized tuning parameters: mindgm=1; mindgv=20; mindgc=4; mindgr=1; noblas=0; minvec=7
 default implementation of scratch files=df  


 Variables initialized (1031), CPU time= 0.00 sec
 
 
 
 geometry={
 7
  C 0.000000 0.000000 0.523306
  H 0.000000 0.000000 1.609625
  N 0.000000 1.054818 -0.264887
  H -0.314690 1.964618 0.041770
  H 0.000000 0.000000 -1.124591
  N 0.000000 -1.054818 -0.264887
  H 0.314690 -1.964618 0.041770
 }
 basis=cc-pVTZ
 angstrom
 
 
 hf; ccsd
 
 
 
 {put,xml;noorbitals,nobasis}
 Commands initialized (841), CPU time= 0.01 sec, 704 directives.
 Default parameters read. Elapsed time= 0.08 sec

 Checking input...
 Passed
1


                                         ***  PROGRAM SYSTEM MOLPRO  ***
                                       Copyright, TTI GmbH Stuttgart, 2015
                                    Version 2023.1 linked Mon Jun  5 13:27:10 2023


 **********************************************************************************************************************************
 LABEL *                                                                                                                                                                 
  (16 PROC) 64 bit serial version                                                        DATE: 02-Aug-23          TIME: 15:49:11  
 **********************************************************************************************************************************

 SHA1:             9738a14712571edd23541b6d7c4f3a3d766f8287
 **********************************************************************************************************************************

 Memory per process:       805 MW
 Total memory per node:   1074 MW
 Total GA space:           268 MW

 GA preallocation disabled
 GA check enabled

 Geometry recognized as XYZ


 Variable memory set to 805.3 MW

 SETTING BASIS          =    CC-PVTZ


 Recomputing integrals since basis changed


 Using spherical harmonics

 Library entry C      S cc-pVTZ              selected for orbital group  1
 Library entry C      P cc-pVTZ              selected for orbital group  1
 Library entry C      D cc-pVTZ              selected for orbital group  1
 Library entry C      F cc-pVTZ              selected for orbital group  1
 Library entry H      S cc-pVTZ              selected for orbital group  2
 Library entry H      P cc-pVTZ              selected for orbital group  2
 Library entry H      D cc-pVTZ              selected for orbital group  2
 Library entry N      S cc-pVTZ              selected for orbital group  3
 Library entry N      P cc-pVTZ              selected for orbital group  3
 Library entry N      D cc-pVTZ              selected for orbital group  3
 Library entry N      F cc-pVTZ              selected for orbital group  3


 PROGRAM * SEWARD (Integral evaluation for generally contracted gaussian basis sets)     Author: Roland Lindh, 1990

 Geometry written to block  1 of record 700


 Point group  C2  



 ATOMIC COORDINATES

 NR  ATOM    CHARGE       X              Y              Z

   1  C       6.00    0.000000000    0.000000000    0.988905019
   2  H       1.00    0.000000000    0.000000000    3.041750413
   3  N       7.00    0.000000000    1.993317131   -0.500563884
   4  N       7.00    0.000000000   -1.993317131   -0.500563884
   5  H       1.00   -0.594677914    3.712589960    0.078933860
   6  H       1.00    0.594677914   -3.712589960    0.078933860
   7  H       1.00    0.000000000    0.000000000   -2.125168992

 Bond lengths in Bohr (Angstrom)

 1-2  2.052845394  1-3  2.488338964  1-4  2.488338964  3-5  1.909282199  3-7  2.571508301
     ( 1.086319000)     ( 1.316772273)     ( 1.316772273)     ( 1.010348629)     ( 1.360783591)

 4-6  1.909282199  4-7  2.571508301
     ( 1.010348629)     ( 1.360783591)

 Bond angles

  1-3-5  122.66077070   1-3-7   75.94916157   1-4-6  122.66077070   1-4-7   75.94916157

  2-1-3  126.76823547   2-1-4  126.76823547   3-1-4  106.46352905   3-7-4  101.63814782

  5-3-7  152.84374691   6-4-7  152.84374691

 NUCLEAR CHARGE:                   24
 NUMBER OF PRIMITIVE AOS:         209
 NUMBER OF SYMMETRY AOS:          190
 NUMBER OF CONTRACTIONS:          146   (   76A   +   70B   )
 NUMBER OF INNER CORE ORBITALS:     0   (    0A   +    0B   )
 NUMBER OF OUTER CORE ORBITALS:     3   (    2A   +    1B   )
 NUMBER OF VALENCE ORBITALS:       16   (    9A   +    7B   )


 NUCLEAR REPULSION ENERGY   73.85249191


 Eigenvalues of metric

         1 0.793E-03 0.137E-02 0.202E-02 0.235E-02 0.394E-02 0.627E-02 0.710E-02 0.109E-01
         2 0.182E-02 0.244E-02 0.305E-02 0.732E-02 0.147E-01 0.219E-01 0.246E-01 0.291E-01


 Contracted 2-electron integrals neglected if value below      1.0D-11
 AO integral compression algorithm  1   Integral accuracy      1.0D-11

     120.324 MB (compressed) written to integral file ( 41.5%)


 NUMBER OF SORTED TWO-ELECTRON INTEGRALS:   29184386.     BUFFER LENGTH:  32768
 NUMBER OF SEGMENTS:   2  SEGMENT LENGTH:   15999830      RECORD LENGTH: 524288

 Memory used in sort:      16.56 MW

 SORT1 READ    36176170. AND WROTE    22723612. INTEGRALS IN     66 RECORDS. CPU TIME:     0.44 SEC, REAL TIME:     0.88 SEC
 SORT2 READ    22723612. AND WROTE    29184386. INTEGRALS IN    459 RECORDS. CPU TIME:     0.74 SEC, REAL TIME:     0.96 SEC

 FILE SIZES:   FILE 1:   151.0 MBYTE,  FILE 4:   276.9 MBYTE,   TOTAL:    427.9 MBYTE

 OPERATOR DM      FOR CENTER  0  COORDINATES:    0.000000    0.000000    0.000000


 **********************************************************************************************************************************
 DATASETS  * FILE   NREC   LENGTH (MB)   RECORD NAMES
              1      19      125.09       500      610      700      900      950      970     1000      129      960     1100   
                                          VAR    BASINP    GEOM    SYMINP    ZMAT    AOBASIS   BASIS     P2S    ABASIS      S 
                                         1400     1410     1200     1210     1080     1600     1650     1300     1700   
                                           T        V       H0       H01     AOSYM     SMH    MOLCAS    ERIS     OPER   

 PROGRAMS   *        TOTAL       INT
 CPU TIMES  *         4.86      4.72
 REAL TIME  *         9.60 SEC
 DISK USED  *       408.49 MB
 **********************************************************************************************************************************


 Program * Restricted Hartree-Fock

 Orbital guess generated from atomic densities. Full valence occupancy:   11   8

 Initial occupancy:   7   5

 NELEC=   24   SYM=1   MS2= 0   THRE=1.0D-08   THRD=3.2D-06   THRG=3.2D-06  HFMA2=F  DIIS_START=2   DIIS_MAX=10   DIIS_INCORE=F

 Level shifts:    0.00 (CLOSED)    0.00 (OPEN)    0.30 (GAP_MIN)

 ITER           ETOT              DE          GRAD        DDIFF     DIIS  NEXP   TIME(IT)  TIME(TOT)  DIAG
   1     -149.00336945    -149.00336945     0.00D+00     0.87D-01     0     0       0.19      0.37    start
   2     -149.03479233      -0.03142287     0.69D-02     0.99D-02     1     0       0.20      0.57    diag
   3     -149.04251568      -0.00772335     0.33D-02     0.32D-02     2     0       0.18      0.75    diag
   4     -149.04328331      -0.00076763     0.82D-03     0.11D-02     3     0       0.19      0.94    diag
   5     -149.04332926      -0.00004596     0.14D-03     0.24D-03     4     0       0.19      1.13    diag
   6     -149.04333588      -0.00000662     0.62D-04     0.98D-04     5     0       0.18      1.31    diag
   7     -149.04333679      -0.00000090     0.19D-04     0.38D-04     6     0       0.19      1.50    diag
   8     -149.04333684      -0.00000005     0.47D-05     0.11D-04     7     0       0.19      1.69    fixocc
   9     -149.04333684      -0.00000000     0.98D-06     0.25D-05     8     0       0.20      1.89    diag
  10     -149.04333684      -0.00000000     0.27D-06     0.33D-06     0     0       0.18      2.07    diag/orth

 Final occupancy:   7   5

 !RHF STATE 1.1 Energy               -149.043336838113
  RHF One-electron energy            -348.226336242801
  RHF Two-electron energy             125.330507497235
  RHF Kinetic energy                  148.802142738684
  RHF Nuclear energy                   73.852491907452
  RHF Virial quotient                  -1.001620904746

 !RHF STATE 1.1 Dipole moment           0.00000000     0.00000000     0.83831030
 Dipole moment /Debye                   0.00000000     0.00000000     2.13077225

 Orbital energies:

           1.1          2.1          3.1          4.1          5.1          6.1          7.1          8.1          9.1
    -15.535367   -11.322603    -1.274980    -0.807829    -0.770088    -0.510492    -0.349730     0.145781     0.177714

           1.2          2.2          3.2          4.2          5.2          6.2          7.2
    -15.535412    -1.094982    -0.626548    -0.525876    -0.428759     0.167979     0.177667


 HOMO      7.1    -0.349730 =      -9.5166eV
 LUMO      8.1     0.145781 =       3.9669eV
 LUMO-HOMO         0.495511 =      13.4835eV

 Orbitals saved in record  2100.2


 **********************************************************************************************************************************
 DATASETS  * FILE   NREC   LENGTH (MB)   RECORD NAMES
              1      19      125.09       500      610      700      900      950      970     1000      129      960     1100   
                                          VAR    BASINP    GEOM    SYMINP    ZMAT    AOBASIS   BASIS     P2S    ABASIS      S 
                                         1400     1410     1200     1210     1080     1600     1650     1300     1700   
                                           T        V       H0       H01     AOSYM     SMH    MOLCAS    ERIS     OPER   

              2       4        0.66       700     1000      520     2100   
                                         GEOM     BASIS   MCVARS     RHF  

 PROGRAMS   *        TOTAL    HF-SCF       INT
 CPU TIMES  *         6.94      2.08      4.72
 REAL TIME  *        12.73 SEC
 DISK USED  *       408.49 MB
 **********************************************************************************************************************************


 PROGRAM * CCSD (Closed-shell coupled cluster)     Authors: C. Hampel, H.-J. Werner, 1991, M. Deegan, P.J. Knowles, 1992


 Convergence thresholds:  THRVAR = 1.00D-08  THRDEN = 1.00D-06

 Number of core orbitals:           3 (   2   1 )
 Number of closed-shell orbitals:   9 (   5   4 )
 Number of external orbitals:     134 (  69  65 )

 Molecular orbitals read from record     2100.2  Type=RHF/CANONICAL  

 Number of N-1 electron functions:               9
 Number of N-2 electron functions:              45
 Number of singly external CSFs:               605
 Number of doubly external CSFs:            364216
 Total number of CSFs:                      364822

 Length of J-op  integral file:               0.00 MB
 Length of K-op  integral file:               0.80 MB
 Length of 3-ext integral record:             0.00 MB

 Integral transformation finished. Total CPU:   1.25 sec, npass=  1  Memory used:   6.31 MW

 Reference energy:                   -149.04333684

 MP2 singlet pair energy:              -0.37805189
 MP2 triplet pair energy:              -0.22782356
 MP2 correlation energy:               -0.60587545
 MP2 total energy:                   -149.64921228

 SCS-MP2 correlation energy:           -0.59541915   (PS=  1.200000  PT=  0.333333)
 SCS-MP2 total energy:               -149.63875599

 ITER.      SQ.NORM     CORR.ENERGY   TOTAL ENERGY   ENERGY CHANGE        DEN1      VAR(S)    VAR(P)  DIIS     TIME  TIME/IT
   1      1.18330958    -0.61436549  -149.65770233    -0.00849005     0.00924994  0.47D-02  0.37D-02  1  1     9.54     1.15
   2      1.19707484    -0.61534013  -149.65867696    -0.00097463    -0.01432070  0.15D-03  0.54D-03  2  2    10.56     1.24
   3      1.20443430    -0.61567099  -149.65900783    -0.00033086    -0.00331250  0.12D-03  0.31D-04  3  3    11.55     1.19
   4      1.20789749    -0.61565479  -149.65899163     0.00001620    -0.00102660  0.14D-04  0.60D-05  4  4    12.56     1.16
   5      1.20941846    -0.61564030  -149.65897714     0.00001449    -0.00027413  0.19D-05  0.58D-06  5  5    13.56     1.15
   6      1.20985510    -0.61561067  -149.65894751     0.00002963    -0.00004682  0.10D-06  0.67D-07  6  6    14.57     1.14
   7      1.20991993    -0.61560797  -149.65894480     0.00000270    -0.00000392  0.14D-07  0.90D-08  6  1    15.57     1.13
   8      1.20992521    -0.61560808  -149.65894491    -0.00000011     0.00000175  0.36D-08  0.12D-08  6  2    16.58     1.13
   9      1.20992902    -0.61560782  -149.65894465     0.00000026     0.00000042  0.88D-09  0.19D-09  6  4    17.60     1.14

 Norm of t1 vector:      0.10731122      S-energy:     0.00000055      T1 diagnostic:  0.01788520
                                                                       D1 diagnostic:  0.06333247
                                                                       D2 diagnostic:  0.16601759 (internal)

 Singles amplitudes (print threshold =  0.500E-01):

         I         SYM. A    A   T(IA)

         8         2         1      0.05462734

 Doubles amplitudes (print threshold =  0.500E-01):

         I         J         SYM. A    SYM. B    A         B      T(IJ, AB)

         5         5         2         2         1         1     -0.05830966


 RESULTS
 =======

  Reference energy                   -149.043336838113
  CCSD singlet pair energy             -0.414263008362
  CCSD triplet pair energy             -0.201345360010
  CCSD correlation energy              -0.615607815993

 !CCSD total energy                  -149.658944654106

 Timing summary (sec):

 STEP                 CPU(USER)    SYS     CPU(TOT)    WALL
 Transformation          1.27      0.13      1.40      2.12
 CCSD iterations        16.36      0.62     16.98     10.27

 Program statistics:

 Available memory in ccsd:               805306037
 Min. memory needed in ccsd:               1057027
 Max. memory used in ccsd:                 1365742
 Max. memory used in cckext:               1459789 ( 9 integral passes)



 **********************************************************************************************************************************
 DATASETS  * FILE   NREC   LENGTH (MB)   RECORD NAMES
              1      20      172.37       500      610      700      900      950      970     1000      129      960     1100   
                                          VAR    BASINP    GEOM    SYMINP    ZMAT    AOBASIS   BASIS     P2S    ABASIS      S 
                                         1400     1410     1200     1210     1080     1600     1650     1300     1700     1380   
                                           T        V       H0       H01     AOSYM     SMH    MOLCAS    ERIS     OPER     JKOP   

              2       4        0.66       700     1000      520     2100   
                                         GEOM     BASIS   MCVARS     RHF  

 PROGRAMS   *        TOTAL      CCSD    HF-SCF       INT
 CPU TIMES  *        17.31     10.35      2.08      4.72
 REAL TIME  *        25.17 SEC
 DISK USED  *       408.49 MB
 **********************************************************************************************************************************

 Dump information in style XML to xml output                                                                      

 Orbitals will not be exported.

 **********************************************************************************************************************************

 CCSD/cc-pVTZ energy=   -149.658944654106

            CCSD          HF-SCF
   -149.65894465   -149.04333684
 **********************************************************************************************************************************
 Molpro calculation terminated
