
 Working directory              : /home/jovyan/scratch/molpro.iU0ea89SaK/
 Global scratch directory       : /home/jovyan/scratch/molpro.iU0ea89SaK/
 Wavefunction directory         : /home/jovyan/wfu/
 Main file repository           : /home/jovyan/scratch/molpro.iU0ea89SaK/

 id        : cardiff

 Nodes                nprocs
 jupyter-c-2efrancisan    1
 GA implementation: MPI file
 GA implementation (serial work in mppx): MPI file

 Using customized tuning parameters: mindgm=1; mindgv=20; mindgc=4; mindgr=1; noblas=0; minvec=7
 default implementation of scratch files=df  


 Variables initialized (1031), CPU time= 0.01 sec
 
 
 
 geometry={
 12
  3NH3 (cyc) (Full point group C1)
  H -1.368356 -0.180977 -0.013169
  H 0.842949 -1.094909 0.003968
  H 0.528298 1.276672 0.008017
  H -1.941415 -1.484031 -0.832875
  H 2.256561 -0.944858 0.826735
  H -0.321706 2.423720 0.820266
  N -1.414869 -1.200455 -0.014850
  N 1.748040 -0.623591 0.011230
  N -0.333168 1.823765 0.003717
  H 2.265911 -0.938111 -0.801018
  H -0.309348 2.430495 -0.807547
  H -1.952921 -1.486037 0.794944
 }
 basis=cc-pVTZ
 angstrom
 
 
 hf; papt;mp3
 
 
 
 {put,xml;noorbitals,nobasis}
 Commands initialized (841), CPU time= 0.01 sec, 704 directives.
 Default parameters read. Elapsed time= 0.07 sec

 Checking input...
 Passed
1


                                         ***  PROGRAM SYSTEM MOLPRO  ***
                                       Copyright, TTI GmbH Stuttgart, 2015
                                    Version 2023.1 linked Mon Jun  5 13:27:10 2023


 **********************************************************************************************************************************
 LABEL *                                                                                                                                                                 
  (16 PROC) 64 bit serial version                                                        DATE: 03-Aug-23          TIME: 13:16:11  
 **********************************************************************************************************************************

 SHA1:             9738a14712571edd23541b6d7c4f3a3d766f8287
 **********************************************************************************************************************************

 Memory per process:       805 MW
 Total memory per node:   1074 MW
 Total GA space:           268 MW

 GA preallocation disabled
 GA check enabled

 Geometry recognized as XYZ


 Variable memory set to 805.3 MW

 SETTING BASIS          =    CC-PVTZ


 Recomputing integrals since basis changed


 Using spherical harmonics

 Library entry H      S cc-pVTZ              selected for orbital group  1
 Library entry H      P cc-pVTZ              selected for orbital group  1
 Library entry H      D cc-pVTZ              selected for orbital group  1
 Library entry N      S cc-pVTZ              selected for orbital group  2
 Library entry N      P cc-pVTZ              selected for orbital group  2
 Library entry N      D cc-pVTZ              selected for orbital group  2
 Library entry N      F cc-pVTZ              selected for orbital group  2


 PROGRAM * SEWARD (Integral evaluation for generally contracted gaussian basis sets)     Author: Roland Lindh, 1990

 Geometry written to block  1 of record 700


 Point group  C1  



 ATOMIC COORDINATES

 NR  ATOM    CHARGE       X              Y              Z

   1  H       1.00   -2.585818081   -0.341996965   -0.024885803
   2  H       1.00    1.592942747   -2.069078141    0.007498433
   3  H       1.00    0.998338532    2.412560431    0.015149934
   4  H       1.00   -3.668742644   -2.804412150   -1.573905646
   5  H       1.00    4.264282274   -1.785522847    1.562302728
   6  H       1.00   -0.607936233    4.580167003    1.550078089
   7  N       7.00   -2.673714912   -2.268531175   -0.028062433
   8  N       7.00    3.303316855   -1.178416204    0.021221624
   9  N       7.00   -0.629596273    3.446416366    0.007024112
  10  H       1.00    4.281951213   -1.772772864   -1.513704641
  11  H       1.00   -0.584582997    4.592969897   -1.526042663
  12  H       1.00   -3.690485833   -2.808202941    1.502226444

 Bond lengths in Bohr (Angstrom)

 1-7  1.928540901  2-8  1.928431124  3-9  1.928495749  4-7  1.914909880  5-8  1.914931847
     ( 1.020539895)     ( 1.020481804)     ( 1.020516002)     ( 1.013326669)     ( 1.013338294)

  6- 9  1.914908677   7-12  1.914902809   8-10  1.914936993   9-11  1.914916429
       ( 1.013326033)       ( 1.013322928)       ( 1.013341017)       ( 1.013330135)

 Bond angles

  1- 7- 4  107.73216325   1- 7-12  107.72315038   2- 8- 5  107.72108479   2- 8-10  107.71067298

  3- 9- 6  107.72562755   3- 9-11  107.72905242   4- 7-12  106.87886132   5- 8-10  106.87023060

  6- 9-11  106.87960451

 NUCLEAR CHARGE:                   30
 NUMBER OF PRIMITIVE AOS:         294
 NUMBER OF SYMMETRY AOS:          270
 NUMBER OF CONTRACTIONS:          216   (  216A   )
 NUMBER OF INNER CORE ORBITALS:     0   (    0A   )
 NUMBER OF OUTER CORE ORBITALS:     3   (    3A   )
 NUMBER OF VALENCE ORBITALS:       21   (   21A   )


 NUCLEAR REPULSION ENERGY   84.04420923


 Eigenvalues of metric

         1 0.148E-02 0.148E-02 0.151E-02 0.318E-02 0.318E-02 0.340E-02 0.348E-02 0.351E-02


 Contracted 2-electron integrals neglected if value below      1.0D-11
 AO integral compression algorithm  1   Integral accuracy      1.0D-11

     715.391 MB (compressed) written to integral file ( 31.7%)


 NUMBER OF SORTED TWO-ELECTRON INTEGRALS:  274634766.     BUFFER LENGTH:  32768
 NUMBER OF SEGMENTS:  18  SEGMENT LENGTH:   15999762      RECORD LENGTH: 524288

 Memory used in sort:      16.56 MW

 SORT1 READ   281822501. AND WROTE   189466806. INTEGRALS IN    552 RECORDS. CPU TIME:     3.36 SEC, REAL TIME:     4.81 SEC
 SORT2 READ   189466806. AND WROTE   274634766. INTEGRALS IN   2729 RECORDS. CPU TIME:     4.09 SEC, REAL TIME:     4.95 SEC

 FILE SIZES:   FILE 1:   747.3 MBYTE,  FILE 4:  2315.3 MBYTE,   TOTAL:   3062.6 MBYTE

 OPERATOR DM      FOR CENTER  0  COORDINATES:    0.000000    0.000000    0.000000


 **********************************************************************************************************************************
 DATASETS  * FILE   NREC   LENGTH (MB)   RECORD NAMES
              1      19      623.43       500      610      700      900      950      970     1000      129      960     1100   
                                          VAR    BASINP    GEOM    SYMINP    ZMAT    AOBASIS   BASIS     P2S    ABASIS      S 
                                         1400     1410     1200     1210     1080     1600     1650     1300     1700   
                                           T        V       H0       H01     AOSYM     SMH    MOLCAS    ERIS     OPER   

 PROGRAMS   *        TOTAL       INT
 CPU TIMES  *        21.33     21.20
 REAL TIME  *        25.77 SEC
 DISK USED  *         2.85 GB
 **********************************************************************************************************************************


 Program * Restricted Hartree-Fock

 Orbital guess generated from atomic densities. Full valence occupancy:   24

 Initial occupancy:  15

 NELEC=   30   SYM=1   MS2= 0   THRE=1.0D-08   THRD=3.2D-06   THRG=3.2D-06  HFMA2=F  DIIS_START=2   DIIS_MAX=10   DIIS_INCORE=F

 Level shifts:    0.00 (CLOSED)    0.00 (OPEN)    0.30 (GAP_MIN)

 ITER           ETOT              DE          GRAD        DDIFF     DIIS  NEXP   TIME(IT)  TIME(TOT)  DIAG
   1     -168.59551083    -168.59551083     0.00D+00     0.49D-01     0     0       3.16      6.23    start
   2     -168.65226125      -0.05675042     0.48D-02     0.66D-02     1     0       3.26      9.49    diag
   3     -168.66419055      -0.01192931     0.23D-02     0.20D-02     2     0       3.23     12.72    diag
   4     -168.66484807      -0.00065752     0.38D-03     0.48D-03     3     0       3.22     15.94    diag
   5     -168.66487933      -0.00003126     0.76D-04     0.97D-04     4     0       3.22     19.16    diag
   6     -168.66488100      -0.00000167     0.15D-04     0.27D-04     5     0       3.17     22.33    diag
   7     -168.66488108      -0.00000008     0.31D-05     0.58D-05     6     0       3.19     25.52    diag
   8     -168.66488109      -0.00000001     0.89D-06     0.19D-05     7     0       3.20     28.72    fixocc
   9     -168.66488109      -0.00000000     0.20D-06     0.31D-06     0     0       3.21     31.93    diag

 Final occupancy:  15

 !RHF STATE 1.1 Energy               -168.664881088985
  RHF One-electron energy            -395.728629606696
  RHF Two-electron energy             143.019539288048
  RHF Kinetic energy                  168.438450061425
  RHF Nuclear energy                   84.044209229663
  RHF Virial quotient                  -1.001344295364

 !RHF STATE 1.1 Dipole moment           0.00082503     0.00242636    -0.00046020
 Dipole moment /Debye                   0.00209702     0.00616719    -0.00116970

 Orbital energies:

           1.1          2.1          3.1          4.1          5.1          6.1          7.1          8.1          9.1         10.1
    -15.520194   -15.520162   -15.520004    -1.129715    -1.119484    -1.119362    -0.631345    -0.614769    -0.611283    -0.611186

          11.1         12.1         13.1         14.1         15.1         16.1         17.1
     -0.602463    -0.602395    -0.419163    -0.419082    -0.404151     0.134665     0.170814


 HOMO     15.1    -0.404151 =     -10.9975eV
 LUMO     16.1     0.134665 =       3.6644eV
 LUMO-HOMO         0.538816 =      14.6619eV

 Orbitals saved in record  2100.2


 **********************************************************************************************************************************
 DATASETS  * FILE   NREC   LENGTH (MB)   RECORD NAMES
              1      19      623.43       500      610      700      900      950      970     1000      129      960     1100   
                                          VAR    BASINP    GEOM    SYMINP    ZMAT    AOBASIS   BASIS     P2S    ABASIS      S 
                                         1400     1410     1200     1210     1080     1600     1650     1300     1700   
                                           T        V       H0       H01     AOSYM     SMH    MOLCAS    ERIS     OPER   

              2       4        1.30       700     1000      520     2100   
                                         GEOM     BASIS   MCVARS     RHF  

 PROGRAMS   *        TOTAL    HF-SCF       INT
 CPU TIMES  *        53.26     31.93     21.20
 REAL TIME  *        59.81 SEC
 DISK USED  *         2.85 GB
 **********************************************************************************************************************************


 PROGRAM * PAPT (Closed-shell)     Authors: C. Hampel, H.-J. Werner, 1991, P.J. Knowles, 2021


 Convergence thresholds:  THRVAR = 1.00D-08  THRDEN = 1.00D-06

 Number of core orbitals:           3 (   3 )
 Number of closed-shell orbitals:  12 (  12 )
 Number of external orbitals:     201 ( 201 )

 Molecular orbitals read from record     2100.2  Type=RHF/CANONICAL  

 Number of N-1 electron functions:              12
 Number of N-2 electron functions:              78
 Number of singly external CSFs:              2412
 Number of doubly external CSFs:           2910078
 Total number of CSFs:                     2912491

 Length of J-op  integral file:               0.00 MB
 Length of K-op  integral file:               3.27 MB

 Integral transformation finished. Total CPU:   6.30 sec, npass=  1  Memory used:   7.06 MW

 Reference energy:                   -168.66488109

                        CORR.ENERGY   TOTAL ENERGY   ENERGY CHANGE
 MP2:                   -0.71440715  -169.37928824    -0.71440715

 SCS-MP2 correlation energy:           -0.71817937   (PS=  1.200000  PT=  0.333333)
 SCS-MP2 total energy:               -169.38306046
 Iteration:   1     0.1945D+00
 Iteration:   2     0.2034D+00
 Iteration:   3     0.5700D-01
 Iteration:   4     0.2553D-01
 Iteration:   5     0.4049D+01
 Iteration:   6     0.8798D-02
 Iteration:   7     0.1663D-01
 Iteration:   8     0.1985D-02
 Iteration:   9     0.1048D-02
 Iteration:  10     0.5511D-02
 Iteration:  11     0.1976D-03
 Iteration:  12     0.1481D-03
 Iteration:  13     0.2339D-03
 Iteration:  14     0.4651D-04
 PAPT operator written to  7000.1
 PAPT orbitals and eigenvalues written to  7000.2

 MP3(D):                -0.74676705  -169.41164814    -0.03235990



 RESULTS
 =======

  Reference energy                   -168.664881088985
  MP3 singlet pair energy              -0.518460092366
  MP3 triplet pair energy              -0.228306957705
  MP3 correlation energy               -0.746767050071

 !MP3 total energy                   -169.411648139056

 Timing summary (sec):

 STEP                 CPU(USER)    SYS     CPU(TOT)    WALL
 Transformation          6.57      0.31      6.88      7.05
 CCSD iterations        82.42      0.64     83.06     30.24

 Program statistics:

 Available memory in ccsd:               805305777
 Min. memory needed in ccsd:               7605796
 Max. memory used in ccsd:                10199614
 Max. memory used in cckext:               7704226 ( 1 integral passes)



 **********************************************************************************************************************************
 DATASETS  * FILE   NREC   LENGTH (MB)   RECORD NAMES
              1      21      666.04       500      610      700      900      950      970     1000      129      960     1100   
                                          VAR    BASINP    GEOM    SYMINP    ZMAT    AOBASIS   BASIS     P2S    ABASIS      S 
                                         1400     1410     1200     1210     1080     1600     1650     1300     1700     1380   
                                           T        V       H0       H01     AOSYM     SMH    MOLCAS    ERIS     OPER     JKOP   
                                         7000   
                                        PAPT AO    

              2       5        2.47       700     1000      520     2100     7000   
                                         GEOM     BASIS   MCVARS     RHF     PAPT   

 PROGRAMS   *        TOTAL      PAPT    HF-SCF       INT
 CPU TIMES  *        88.79     35.53     31.93     21.20
 REAL TIME  *        97.14 SEC
 DISK USED  *         2.85 GB
 **********************************************************************************************************************************


 PROGRAM * MP3 (Closed-shell)     Authors: C. Hampel, H.-J. Werner, 1991, M. Deegan, P.J. Knowles, 1992


 Convergence thresholds:  THRVAR = 1.00D-08  THRDEN = 1.00D-06

 Number of core orbitals:           3 (   3 )
 Number of closed-shell orbitals:  12 (  12 )
 Number of external orbitals:     201 ( 201 )

 Molecular orbitals read from record     7000.2  Type=PAPT/CANONICAL (state 1.1)

 Number of N-1 electron functions:              12
 Number of N-2 electron functions:              78
 Number of singly external CSFs:              2412
 Number of doubly external CSFs:           2910078
 Total number of CSFs:                     2912491

 Length of J-op  integral file:               0.00 MB
 Length of K-op  integral file:               3.27 MB

 Integral transformation finished. Total CPU:   6.24 sec, npass=  1  Memory used:   7.06 MW
 Orbital energies read from record       7000.2  Type=PAPT/CANONICAL (state 1.1)

 Reference energy:                   -168.66488109

                        CORR.ENERGY   TOTAL ENERGY   ENERGY CHANGE
 MP2:                   -0.75344375  -169.41832484    -0.75344375

 SCS-MP2 correlation energy:           -0.75953703   (PS=  1.200000  PT=  0.333333)
 SCS-MP2 total energy:               -169.42441812

 MP3(D):                -0.75354777  -169.41842885    -0.00010402



 RESULTS
 =======

  Reference energy                   -168.664881088985
  MP3 singlet pair energy              -0.525929768112
  MP3 triplet pair energy              -0.227617997552
  MP3 correlation energy               -0.753547765664

 !MP3 total energy                   -169.418428854649

 Timing summary (sec):

 STEP                 CPU(USER)    SYS     CPU(TOT)    WALL
 Transformation          9.70      0.45     10.15     10.36
 CCSD iterations       106.94      0.31    107.25     18.45

 Program statistics:

 Available memory in ccsd:               805305777
 Min. memory needed in ccsd:               7605796
 Max. memory used in ccsd:                10199614
 Max. memory used in cckext:               7704226 ( 1 integral passes)



 **********************************************************************************************************************************
 DATASETS  * FILE   NREC   LENGTH (MB)   RECORD NAMES
              1      21      666.04       500      610      700      900      950      970     1000      129      960     1100   
                                          VAR    BASINP    GEOM    SYMINP    ZMAT    AOBASIS   BASIS     P2S    ABASIS      S 
                                         1400     1410     1200     1210     1080     1600     1650     1300     1700     1380   
                                           T        V       H0       H01     AOSYM     SMH    MOLCAS    ERIS     OPER     JKOP   
                                         7000   
                                        PAPT AO    

              2       5        2.47       700     1000      520     2100     7000   
                                         GEOM     BASIS   MCVARS     RHF     PAPT   

 PROGRAMS   *        TOTAL       MP3      PAPT    HF-SCF       INT
 CPU TIMES  *       116.44     27.65     35.53     31.93     21.20
 REAL TIME  *       125.99 SEC
 DISK USED  *         2.85 GB
 **********************************************************************************************************************************

 Dump information in style XML to xml output                                                                      

 Orbitals will not be exported.

 **********************************************************************************************************************************

 MP3/cc-pVTZ energy=   -169.418428854649

             MP3            PAPT          HF-SCF
   -169.41842885   -169.41164814   -168.66488109
 **********************************************************************************************************************************
 Molpro calculation terminated
