
 Working directory              : /home/jovyan/scratch/molpro.qG01MlMa6D/
 Global scratch directory       : /home/jovyan/scratch/molpro.qG01MlMa6D/
 Wavefunction directory         : /home/jovyan/wfu/
 Main file repository           : /home/jovyan/scratch/molpro.qG01MlMa6D/

 id        : cardiff

 Nodes                nprocs
 jupyter-c-2efrancisan    1
 GA implementation: MPI file
 GA implementation (serial work in mppx): MPI file

 Using customized tuning parameters: mindgm=1; mindgv=20; mindgc=4; mindgr=1; noblas=0; minvec=7
 default implementation of scratch files=df  


 Variables initialized (1031), CPU time= 0.01 sec
 
 
 
 geometry={
           11
     C         -1.03666222      1.00226747      0.00000000
     C         -0.99802842     -0.37323986      0.00000000
     C          1.15125899     -0.89785440      0.00000000
     N          1.59581209      0.37970345      0.00000000
     N          1.23898727      1.47513174      0.00000000
     H         -1.16993317      1.56007075     -0.91825218
     H         -1.16993317      1.56007075      0.91825218
     H         -1.19957230     -0.92033561     -0.91402853
     H         -1.19957230     -0.92033561      0.91402853
     H          1.39382161     -1.43273935      0.91491930
     H          1.39382161     -1.43273935     -0.91491930
 }
 basis=cc-pVTZ
 angstrom
 
 
 hf; papt;mp2
 
 
 
 {put,xml;noorbitals,nobasis}
 Commands initialized (841), CPU time= 0.01 sec, 704 directives.
 Default parameters read. Elapsed time= 0.08 sec

 Checking input...
 Passed
1


                                         ***  PROGRAM SYSTEM MOLPRO  ***
                                       Copyright, TTI GmbH Stuttgart, 2015
                                    Version 2023.1 linked Mon Jun  5 13:27:10 2023


 **********************************************************************************************************************************
 LABEL *                                                                                                                                                                 
  (16 PROC) 64 bit serial version                                                        DATE: 03-Aug-23          TIME: 10:52:47  
 **********************************************************************************************************************************

 SHA1:             9738a14712571edd23541b6d7c4f3a3d766f8287
 **********************************************************************************************************************************

 Memory per process:       805 MW
 Total memory per node:   1074 MW
 Total GA space:           268 MW

 GA preallocation disabled
 GA check enabled

 Geometry recognized as XYZ


 Variable memory set to 805.3 MW

 SETTING BASIS          =    CC-PVTZ


 Recomputing integrals since basis changed


 Using spherical harmonics

 Library entry C      S cc-pVTZ              selected for orbital group  1
 Library entry C      P cc-pVTZ              selected for orbital group  1
 Library entry C      D cc-pVTZ              selected for orbital group  1
 Library entry C      F cc-pVTZ              selected for orbital group  1
 Library entry N      S cc-pVTZ              selected for orbital group  2
 Library entry N      P cc-pVTZ              selected for orbital group  2
 Library entry N      D cc-pVTZ              selected for orbital group  2
 Library entry N      F cc-pVTZ              selected for orbital group  2
 Library entry H      S cc-pVTZ              selected for orbital group  3
 Library entry H      P cc-pVTZ              selected for orbital group  3
 Library entry H      D cc-pVTZ              selected for orbital group  3


 PROGRAM * SEWARD (Integral evaluation for generally contracted gaussian basis sets)     Author: Roland Lindh, 1990

 Geometry written to block  1 of record 700


 Point group  Cs  



 ATOMIC COORDINATES

 NR  ATOM    CHARGE       X              Y              Z

   1  C       6.00   -1.959007680    1.894011022    0.000000000
   2  C       6.00   -1.886000378   -0.705321114    0.000000000
   3  C       6.00    2.175564190   -1.696698916    0.000000000
   4  N       7.00    3.015647796    0.717535529    0.000000000
   5  N       7.00    2.341346612    2.787594986    0.000000000
   6  H       1.00   -2.210853275    2.948106453   -1.735245134
   7  H       1.00   -2.210853275    2.948106453    1.735245134
   8  H       1.00   -2.266863114   -1.739182246   -1.727263592
   9  H       1.00   -2.266863114   -1.739182246    1.727263592
  10  H       1.00    2.633941109   -2.707484979    1.728946903
  11  H       1.00    2.633941109   -2.707484979   -1.728946903

 Bond lengths in Bohr (Angstrom)

 1-2  2.600357210  1-6  2.045878553  1-7  2.045878553  2-8  2.048747124  2-9  2.048747124
     ( 1.376049776)     ( 1.082632307)     ( 1.082632307)     ( 1.084150289)     ( 1.084150289)

  3- 4  2.556221513   3-10  2.054520689   3-11  2.054520689   4- 5  2.177114660
       ( 1.352694170)       ( 1.087205528)       ( 1.087205528)       ( 1.152079464)

 Bond angles

  1-2-8  119.94792439   1-2-9  119.94792439   2-1-6  121.23046507   2-1-7  121.23046507

  3- 4- 5  142.77108279   4- 3-10  113.03738549   4- 3-11  113.03738549   6- 1- 7  116.02555382

  8- 2- 9  114.93421732  10- 3-11  114.60470712

 NUCLEAR CHARGE:                   38
 NUMBER OF PRIMITIVE AOS:         337
 NUMBER OF SYMMETRY AOS:          306
 NUMBER OF CONTRACTIONS:          234   (  142A'  +   92A"  )
 NUMBER OF INNER CORE ORBITALS:     0   (    0A'  +    0A"  )
 NUMBER OF OUTER CORE ORBITALS:     5   (    5A'  +    0A"  )
 NUMBER OF VALENCE ORBITALS:       26   (   18A'  +    8A"  )


 NUCLEAR REPULSION ENERGY  161.45551786


 Eigenvalues of metric

         1 0.394E-03 0.824E-03 0.122E-02 0.136E-02 0.144E-02 0.162E-02 0.188E-02 0.207E-02
         2 0.865E-03 0.145E-02 0.179E-02 0.380E-02 0.860E-02 0.929E-02 0.101E-01 0.122E-01


 Contracted 2-electron integrals neglected if value below      1.0D-11
 AO integral compression algorithm  1   Integral accuracy      1.0D-11

     730.071 MB (compressed) written to integral file ( 43.1%)


 NUMBER OF SORTED TWO-ELECTRON INTEGRALS:  191003164.     BUFFER LENGTH:  32768
 NUMBER OF SEGMENTS:  12  SEGMENT LENGTH:   15999503      RECORD LENGTH: 524288

 Memory used in sort:      16.56 MW

 SORT1 READ   211824171. AND WROTE   176033625. INTEGRALS IN    509 RECORDS. CPU TIME:     3.32 SEC, REAL TIME:     4.63 SEC
 SORT2 READ   176033625. AND WROTE   191003164. INTEGRALS IN   2785 RECORDS. CPU TIME:     3.64 SEC, REAL TIME:     4.48 SEC

 FILE SIZES:   FILE 1:   761.7 MBYTE,  FILE 4:  2135.0 MBYTE,   TOTAL:   2896.6 MBYTE

 OPERATOR DM      FOR CENTER  0  COORDINATES:    0.000000    0.000000    0.000000


 **********************************************************************************************************************************
 DATASETS  * FILE   NREC   LENGTH (MB)   RECORD NAMES
              1      19      684.04       500      610      700      900      950      970     1000      129      960     1100   
                                          VAR    BASINP    GEOM    SYMINP    ZMAT    AOBASIS   BASIS     P2S    ABASIS      S 
                                         1400     1410     1200     1210     1080     1600     1650     1300     1700   
                                           T        V       H0       H01     AOSYM     SMH    MOLCAS    ERIS     OPER   

 PROGRAMS   *        TOTAL       INT
 CPU TIMES  *        25.92     25.79
 REAL TIME  *        30.11 SEC
 DISK USED  *         2.70 GB
 **********************************************************************************************************************************


 Program * Restricted Hartree-Fock

 Orbital guess generated from atomic densities. Full valence occupancy:   23   8

 Initial occupancy:  15   4

 NELEC=   38   SYM=1   MS2= 0   THRE=1.0D-08   THRD=3.2D-06   THRG=3.2D-06  HFMA2=F  DIIS_START=2   DIIS_MAX=10   DIIS_INCORE=F

 Level shifts:    0.00 (CLOSED)    0.00 (OPEN)    0.30 (GAP_MIN)

 ITER           ETOT              DE          GRAD        DDIFF     DIIS  NEXP   TIME(IT)  TIME(TOT)  DIAG
   1     -225.80269570    -225.80269570     0.00D+00     0.68D-01     0     0       1.56      3.05    start
   2     -225.86416384      -0.06146814     0.58D-02     0.88D-02     1     0       1.55      4.60    diag
   3     -225.90277081      -0.03860697     0.43D-02     0.39D-02     2     0       1.56      6.16    diag
   4     -225.90472214      -0.00195133     0.70D-03     0.11D-02     3     0       1.58      7.74    diag
   5     -225.90521441      -0.00049227     0.42D-03     0.45D-03     4     0       1.56      9.30    diag
   6     -225.90535627      -0.00014187     0.15D-03     0.24D-03     5     0       1.56     10.86    diag
   7     -225.90541516      -0.00005889     0.70D-04     0.17D-03     6     0       1.56     12.42    diag
   8     -225.90544669      -0.00003152     0.46D-04     0.17D-03     7     0       1.55     13.97    fixocc
   9     -225.90545100      -0.00000431     0.16D-04     0.79D-04     8     0       1.55     15.52    diag
  10     -225.90545114      -0.00000014     0.44D-05     0.95D-05     9     0       1.54     17.06    diag/orth
  11     -225.90545117      -0.00000003     0.19D-05     0.51D-05     9     0       1.56     18.62    diag
  12     -225.90545118      -0.00000000     0.71D-06     0.20D-05     9     0       1.54     20.16    diag
  13     -225.90545118      -0.00000000     0.22D-06     0.40D-06     0     0       1.55     21.71    diag

 Final occupancy:  15   4

 !RHF STATE 1.1 Energy               -225.905451178061
  RHF One-electron energy            -624.769287418928
  RHF Two-electron energy             237.408318378497
  RHF Kinetic energy                  225.489863107673
  RHF Nuclear energy                  161.455517862370
  RHF Virial quotient                  -1.001843045468

 !RHF STATE 1.1 Dipole moment           0.15588399    -0.81598969     0.00000000
 Dipole moment /Debye                   0.39621758    -2.07403891     0.00000000

 Orbital energies:

           1.1          2.1          3.1          4.1          5.1          6.1          7.1          8.1          9.1         10.1
    -15.683772   -15.655611   -11.286823   -11.227691   -11.216630    -1.427526    -1.079070    -1.014210    -0.791812    -0.760490

          11.1         12.1         13.1         14.1         15.1         16.1         17.1
     -0.660108    -0.626309    -0.566836    -0.370731    -0.297887     0.120860     0.138333

           1.2          2.2          3.2          4.2          5.2          6.2
     -0.671664    -0.619210    -0.529365    -0.490547     0.134394     0.195046


 HOMO     15.1    -0.297887 =      -8.1059eV
 LUMO     16.1     0.120860 =       3.2888eV
 LUMO-HOMO         0.418747 =      11.3947eV

 Orbitals saved in record  2100.2


 **********************************************************************************************************************************
 DATASETS  * FILE   NREC   LENGTH (MB)   RECORD NAMES
              1      19      684.04       500      610      700      900      950      970     1000      129      960     1100   
                                          VAR    BASINP    GEOM    SYMINP    ZMAT    AOBASIS   BASIS     P2S    ABASIS      S 
                                         1400     1410     1200     1210     1080     1600     1650     1300     1700   
                                           T        V       H0       H01     AOSYM     SMH    MOLCAS    ERIS     OPER   

              2       4        1.02       700     1000      520     2100   
                                         GEOM     BASIS   MCVARS     RHF  

 PROGRAMS   *        TOTAL    HF-SCF       INT
 CPU TIMES  *        47.64     21.72     25.79
 REAL TIME  *        54.29 SEC
 DISK USED  *         2.70 GB
 **********************************************************************************************************************************


 PROGRAM * PAPT (Closed-shell)     Authors: C. Hampel, H.-J. Werner, 1991, P.J. Knowles, 2021


 Convergence thresholds:  THRVAR = 1.00D-08  THRDEN = 1.00D-06

 Number of core orbitals:           5 (   5   0 )
 Number of closed-shell orbitals:  14 (  10   4 )
 Number of external orbitals:     215 ( 127  88 )

 Molecular orbitals read from record     2100.2  Type=RHF/CANONICAL  

 Number of N-1 electron functions:              14
 Number of N-2 electron functions:             105
 Number of singly external CSFs:              1622
 Number of doubly external CSFs:           2280219
 Total number of CSFs:                     2281842

 Length of J-op  integral file:               0.00 MB
 Length of K-op  integral file:               2.03 MB

 Integral transformation finished. Total CPU:   3.25 sec, npass=  1  Memory used:   3.28 MW

 Reference energy:                   -225.90545118

                        CORR.ENERGY   TOTAL ENERGY   ENERGY CHANGE
 MP2:                   -0.94883534  -226.85428652    -0.94883534

 SCS-MP2 correlation energy:           -0.93424578   (PS=  1.200000  PT=  0.333333)
 SCS-MP2 total energy:               -226.83969696
 Iteration:   1     0.3072D+00
 Iteration:   2     0.5884D+00
 Iteration:   3     0.8039D-01
 Iteration:   4     0.9531D-01
 Iteration:   5     0.3445D-01
 Iteration:   6     0.2766D-01
 Iteration:   7     0.2089D-01
 Iteration:   8     0.7247D-02
 Iteration:   9     0.1299D+00
 Iteration:  10     0.3199D-02
 Iteration:  11     0.1147D-01
 Iteration:  12     0.1685D-02
 Iteration:  13     0.2083D-02
 Iteration:  14     0.1992D-02
 Iteration:  15     0.7634D-03
 Iteration:  16     0.5058D-02
 Iteration:  17     0.4255D-03
 Iteration:  18     0.3186D-03
 Iteration:  19     0.2501D-03
 Iteration:  20     0.8440D-04
 PAPT operator written to  7000.1
 PAPT orbitals and eigenvalues written to  7000.2

 MP3(D):                -0.95175155  -226.85720272    -0.00291621



 RESULTS
 =======

  Reference energy                   -225.905451178060
  MP3 singlet pair energy              -0.638897839913
  MP3 triplet pair energy              -0.312853706797
  MP3 correlation energy               -0.951751546710

 !MP3 total energy                   -226.857202724770

 Timing summary (sec):

 STEP                 CPU(USER)    SYS     CPU(TOT)    WALL
 Transformation          3.39      0.35      3.74      4.01
 CCSD iterations        62.96      0.42     63.38     15.78

 Program statistics:

 Available memory in ccsd:               805305569
 Min. memory needed in ccsd:               5784726
 Max. memory used in ccsd:                 7841381
 Max. memory used in cckext:               7923910 ( 1 integral passes)



 **********************************************************************************************************************************
 DATASETS  * FILE   NREC   LENGTH (MB)   RECORD NAMES
              1      21      717.91       500      610      700      900      950      970     1000      129      960     1100   
                                          VAR    BASINP    GEOM    SYMINP    ZMAT    AOBASIS   BASIS     P2S    ABASIS      S 
                                         1400     1410     1200     1210     1080     1600     1650     1300     1700     1380   
                                           T        V       H0       H01     AOSYM     SMH    MOLCAS    ERIS     OPER     JKOP   
                                         7000   
                                        PAPT AO    

              2       5        1.77       700     1000      520     2100     7000   
                                         GEOM     BASIS   MCVARS     RHF     PAPT   

 PROGRAMS   *        TOTAL      PAPT    HF-SCF       INT
 CPU TIMES  *        66.15     18.51     21.72     25.79
 REAL TIME  *        74.13 SEC
 DISK USED  *         2.70 GB
 **********************************************************************************************************************************


 PROGRAM * MP2 (Closed-shell)     Authors: C. Hampel, H.-J. Werner, 1991, M. Deegan, P.J. Knowles, 1992


 Convergence thresholds:  THRVAR = 1.00D-08  THRDEN = 1.00D-06

 Number of core orbitals:           5 (   5   0 )
 Number of closed-shell orbitals:  14 (  10   4 )
 Number of external orbitals:     215 ( 127  88 )

 Molecular orbitals read from record     7000.2  Type=PAPT/CANONICAL (state 1.1)

 Number of N-1 electron functions:              14
 Number of N-2 electron functions:             105
 Number of singly external CSFs:              1622
 Number of doubly external CSFs:           2280219
 Total number of CSFs:                     2281842

 Length of J-op  integral file:               0.00 MB
 Length of K-op  integral file:               2.03 MB

 Integral transformation finished. Total CPU:   3.35 sec, npass=  1  Memory used:   3.28 MW
 Orbital energies read from record       7000.2  Type=PAPT/CANONICAL (state 1.1)

 Memory needed for MP2:                      0.14 MW

 SCS-MP2 correlation energy:           -0.955480287932   (PS=  1.200000  PT=  0.333333)
 SCS-MP2 total energy:               -226.860931465992


  Reference energy                   -225.905451178060
  MP2 singlet pair energy              -0.615649551549
  MP2 triplet pair energy              -0.348269184760
  MP2 correlation energy               -0.963918736309

 !MP2 total energy                   -226.869369914369


 **********************************************************************************************************************************
 DATASETS  * FILE   NREC   LENGTH (MB)   RECORD NAMES
              1      21      717.91       500      610      700      900      950      970     1000      129      960     1100   
                                          VAR    BASINP    GEOM    SYMINP    ZMAT    AOBASIS   BASIS     P2S    ABASIS      S 
                                         1400     1410     1200     1210     1080     1600     1650     1300     1700     1380   
                                           T        V       H0       H01     AOSYM     SMH    MOLCAS    ERIS     OPER     JKOP   
                                         7000   
                                        PAPT AO    

              2       5        1.77       700     1000      520     2100     7000   
                                         GEOM     BASIS   MCVARS     RHF     PAPT   

 PROGRAMS   *        TOTAL       MP2      PAPT    HF-SCF       INT
 CPU TIMES  *        71.32      5.17     18.51     21.72     25.79
 REAL TIME  *        80.07 SEC
 DISK USED  *         2.70 GB
 **********************************************************************************************************************************

 Dump information in style XML to xml output                                                                      

 Orbitals will not be exported.

 **********************************************************************************************************************************

 MP2/cc-pVTZ energy=   -226.869369914369

             MP2            PAPT          HF-SCF
   -226.86936991   -226.85720272   -225.90545118
 **********************************************************************************************************************************
 Molpro calculation terminated
