
 Working directory              : /home/jovyan/scratch/molpro.a4EdY8bixN/
 Global scratch directory       : /home/jovyan/scratch/molpro.a4EdY8bixN/
 Wavefunction directory         : /home/jovyan/wfu/
 Main file repository           : /home/jovyan/scratch/molpro.a4EdY8bixN/

 id        : cardiff

 Nodes                nprocs
 jupyter-c-2efrancisan    1
 GA implementation: MPI file
 GA implementation (serial work in mppx): MPI file

 Using customized tuning parameters: mindgm=1; mindgv=20; mindgc=4; mindgr=1; noblas=0; minvec=7
 default implementation of scratch files=df  


 Variables initialized (1031), CPU time= 0.01 sec
 
 
 
 geometry={
           13
     C         -1.15652361      2.93352478      1.38638873
     H         -1.85899517      3.64036578      1.84778981
     H         -0.88476369      3.31466237      0.39188227
     H         -0.25010039      2.90547455      2.00563584
     C         -1.78583109      1.53234273      1.27366635
     H         -2.67209324      1.57854710      0.61845852
     H         -1.07752237      0.85015202      0.77388167
     C         -2.16996609      0.96729694      2.56450663
     C         -2.47846590      0.52534993      3.65250700
     C         -2.85195129     -0.01527234      4.95275370
     H         -2.42391460     -1.01780635      5.10694049
     H         -2.49335749      0.62859056      5.77043736
     H         -3.94494133     -0.10110164      5.05177549
 }
 basis=cc-pVDZ
 angstrom
 
 
 hf; papt;mp4
 
 
 
 {put,xml;noorbitals,nobasis}
 Commands initialized (841), CPU time= 0.00 sec, 704 directives.
 Default parameters read. Elapsed time= 0.08 sec

 Checking input...
 Passed
1


                                         ***  PROGRAM SYSTEM MOLPRO  ***
                                       Copyright, TTI GmbH Stuttgart, 2015
                                    Version 2023.1 linked Mon Jun  5 13:27:10 2023


 **********************************************************************************************************************************
 LABEL *                                                                                                                                                                 
  (16 PROC) 64 bit serial version                                                        DATE: 03-Aug-23          TIME: 16:59:16  
 **********************************************************************************************************************************

 SHA1:             9738a14712571edd23541b6d7c4f3a3d766f8287
 **********************************************************************************************************************************

 Memory per process:       805 MW
 Total memory per node:   1074 MW
 Total GA space:           268 MW

 GA preallocation disabled
 GA check enabled

 Geometry recognized as XYZ


 Variable memory set to 805.3 MW

 SETTING BASIS          =    CC-PVDZ


 Recomputing integrals since basis changed


 Using spherical harmonics

 Library entry C      S cc-pVDZ              selected for orbital group  1
 Library entry C      P cc-pVDZ              selected for orbital group  1
 Library entry C      D cc-pVDZ              selected for orbital group  1
 Library entry H      S cc-pVDZ              selected for orbital group  2
 Library entry H      P cc-pVDZ              selected for orbital group  2


 PROGRAM * SEWARD (Integral evaluation for generally contracted gaussian basis sets)     Author: Roland Lindh, 1990

 Geometry written to block  1 of record 700


 Point group  C1  



 ATOMIC COORDINATES

 NR  ATOM    CHARGE       X              Y              Z

   1  C       6.00   -2.185512880    5.543558414    2.619895002
   2  H       1.00   -3.512991738    6.879294318    3.491816677
   3  H       1.00   -1.671961059    6.263804075    0.740550163
   4  H       1.00   -0.472621241    5.490551162    3.790102443
   5  C       6.00   -3.374731665    2.895708089    2.406880576
   6  H       1.00   -5.049524403    2.983021694    1.168717222
   7  H       1.00   -2.036222172    1.606554482    1.462424409
   8  C       6.00   -4.100641610    1.827926298    4.846215175
   9  C       6.00   -4.683621760    0.992767487    6.902237898
  10  C       6.00   -5.389406859   -0.028860540    9.359348056
  11  H       1.00   -4.580534743   -1.923375249    9.650718861
  12  H       1.00   -4.711762787    1.187864003   10.904546230
  13  H       1.00   -7.454858691   -0.191054410    9.546472119

 Bond lengths in Bohr (Angstrom)

 1-2  2.075244066  1-3  2.077119714  1-4  2.075136861  1-5  2.910451479  5-6  2.084610964
     ( 1.098171867)     ( 1.099164417)     ( 1.098115136)     ( 1.540144596)     ( 1.103128616)

  5- 7  2.084591599   5- 8  2.759974002   8- 9  2.294468464   9-10  2.753043181  10-11  2.080470387
       ( 1.103118368)       ( 1.460515344)       ( 1.214180422)       ( 1.456847712)       ( 1.100937517)

 10-12  2.080206119  10-13  2.080243625
       ( 1.100797672)       ( 1.100817519)

 Bond angles

  1-5-6  109.48987163   1-5-7  109.47643318   1-5-8  113.25071324   2-1-3  108.36775526

  2-1-4  107.90973990   2-1-5  110.79074886   3-1-4  108.36075804   3-1-5  110.50376687

  4-1-5  110.81238094   5-8-9  178.42664079   6-5-7  105.82308721   6-5-8  109.25961989

  7- 5- 8  109.27214153   8- 9-10  179.52607448   9-10-11  111.29960106   9-10-12  111.24748528

  9-10-13  111.33126571  11-10-12  107.57431964  11-10-13  107.60365334  12-10-13  107.59148141

 NUCLEAR CHARGE:                   38
 NUMBER OF PRIMITIVE AOS:         191
 NUMBER OF SYMMETRY AOS:          186
 NUMBER OF CONTRACTIONS:          110   (  110A   )
 NUMBER OF INNER CORE ORBITALS:     0   (    0A   )
 NUMBER OF OUTER CORE ORBITALS:     5   (    5A   )
 NUMBER OF VALENCE ORBITALS:       28   (   28A   )


 NUCLEAR REPULSION ENERGY  150.03460581


 Eigenvalues of metric

         1 0.113E-03 0.160E-02 0.393E-02 0.623E-02 0.156E-01 0.188E-01 0.198E-01 0.236E-01


 Contracted 2-electron integrals neglected if value below      1.0D-11
 AO integral compression algorithm  1   Integral accuracy      1.0D-11

     73.400 MB (compressed) written to integral file ( 48.1%)


 NUMBER OF SORTED TWO-ELECTRON INTEGRALS:   18638565.     BUFFER LENGTH:  32768
 NUMBER OF SEGMENTS:   2  SEGMENT LENGTH:   15997996      RECORD LENGTH: 524288

 Memory used in sort:      16.56 MW

 SORT1 READ    19030100. AND WROTE    16618706. INTEGRALS IN     48 RECORDS. CPU TIME:     0.24 SEC, REAL TIME:     0.71 SEC
 SORT2 READ    16618706. AND WROTE    18638565. INTEGRALS IN    280 RECORDS. CPU TIME:     0.40 SEC, REAL TIME:     0.48 SEC

 FILE SIZES:   FILE 1:   104.1 MBYTE,  FILE 4:   201.4 MBYTE,   TOTAL:    305.5 MBYTE

 OPERATOR DM      FOR CENTER  0  COORDINATES:    0.000000    0.000000    0.000000


 **********************************************************************************************************************************
 DATASETS  * FILE   NREC   LENGTH (MB)   RECORD NAMES
              1      19       90.90       500      610      700      900      950      970     1000      129      960     1100   
                                          VAR    BASINP    GEOM    SYMINP    ZMAT    AOBASIS   BASIS     P2S    ABASIS      S 
                                         1400     1410     1200     1210     1080     1600     1650     1300     1700   
                                           T        V       H0       H01     AOSYM     SMH    MOLCAS    ERIS     OPER   

 PROGRAMS   *        TOTAL       INT
 CPU TIMES  *         3.28      3.15
 REAL TIME  *         6.28 SEC
 DISK USED  *       291.84 MB
 **********************************************************************************************************************************


 Program * Restricted Hartree-Fock

 Orbital guess generated from atomic densities. Full valence occupancy:   33

 Initial occupancy:  19

 NELEC=   38   SYM=1   MS2= 0   THRE=1.0D-08   THRD=3.2D-06   THRG=3.2D-06  HFMA2=F  DIIS_START=2   DIIS_MAX=10   DIIS_INCORE=F

 Level shifts:    0.00 (CLOSED)    0.00 (OPEN)    0.30 (GAP_MIN)

 ITER           ETOT              DE          GRAD        DDIFF     DIIS  NEXP   TIME(IT)  TIME(TOT)  DIAG
   1     -193.89828354    -193.89828354     0.00D+00     0.10D+00     0     0       0.19      0.38    start
   2     -193.95061138      -0.05232784     0.43D-02     0.10D-01     1     0       0.20      0.58    diag
   3     -193.95625589      -0.00564451     0.15D-02     0.35D-02     2     0       0.19      0.77    diag
   4     -193.95709849      -0.00084260     0.49D-03     0.14D-02     3     0       0.20      0.97    diag
   5     -193.95713016      -0.00003167     0.12D-03     0.33D-03     4     0       0.19      1.16    diag
   6     -193.95713816      -0.00000800     0.63D-04     0.13D-03     5     0       0.19      1.35    diag
   7     -193.95713835      -0.00000019     0.79D-05     0.25D-04     6     0       0.19      1.54    diag
   8     -193.95713837      -0.00000002     0.24D-05     0.65D-05     7     0       0.19      1.73    fixocc
   9     -193.95713837      -0.00000000     0.63D-06     0.19D-05     8     0       0.20      1.93    diag
  10     -193.95713837      -0.00000000     0.27D-06     0.57D-06     0     0       0.19      2.12    diag/orth

 Final occupancy:  19

 !RHF STATE 1.1 Energy               -193.957138369161
  RHF One-electron energy            -557.236178080266
  RHF Two-electron energy             213.244433897561
  RHF Kinetic energy                  193.597312906259
  RHF Nuclear energy                  150.034605813544
  RHF Virial quotient                  -1.001858628395

 !RHF STATE 1.1 Dipole moment           0.00798786     0.02209820     0.02600272
 Dipole moment /Debye                   0.02030313     0.05616801     0.06609231

 Orbital energies:

           1.1          2.1          3.1          4.1          5.1          6.1          7.1          8.1          9.1         10.1
    -11.252264   -11.251323   -11.229374   -11.223173   -11.218655    -1.073254    -1.024838    -0.938843    -0.856789    -0.657869

          11.1         12.1         13.1         14.1         15.1         16.1         17.1         18.1         19.1         20.1
     -0.616217    -0.608334    -0.578364    -0.576602    -0.539055    -0.513847    -0.502990    -0.356365    -0.355498     0.178671

          21.1
      0.195298


 HOMO     19.1    -0.355498 =      -9.6736eV
 LUMO     20.1     0.178671 =       4.8619eV
 LUMO-HOMO         0.534169 =      14.5355eV

 Orbitals saved in record  2100.2


 **********************************************************************************************************************************
 DATASETS  * FILE   NREC   LENGTH (MB)   RECORD NAMES
              1      19       90.90       500      610      700      900      950      970     1000      129      960     1100   
                                          VAR    BASINP    GEOM    SYMINP    ZMAT    AOBASIS   BASIS     P2S    ABASIS      S 
                                         1400     1410     1200     1210     1080     1600     1650     1300     1700   
                                           T        V       H0       H01     AOSYM     SMH    MOLCAS    ERIS     OPER   

              2       4        0.77       700     1000      520     2100   
                                         GEOM     BASIS   MCVARS     RHF  

 PROGRAMS   *        TOTAL    HF-SCF       INT
 CPU TIMES  *         5.40      2.12      3.15
 REAL TIME  *         8.58 SEC
 DISK USED  *       291.84 MB
 **********************************************************************************************************************************


 PROGRAM * PAPT (Closed-shell)     Authors: C. Hampel, H.-J. Werner, 1991, P.J. Knowles, 2021


 Convergence thresholds:  THRVAR = 1.00D-08  THRDEN = 1.00D-06

 Number of core orbitals:           5 (   5 )
 Number of closed-shell orbitals:  14 (  14 )
 Number of external orbitals:      91 (  91 )

 Molecular orbitals read from record     2100.2  Type=RHF/CANONICAL  

 Number of N-1 electron functions:              14
 Number of N-2 electron functions:             105
 Number of singly external CSFs:              1274
 Number of doubly external CSFs:            812175
 Total number of CSFs:                      813450

 Length of J-op  integral file:               0.00 MB
 Length of K-op  integral file:               0.89 MB

 Integral transformation finished. Total CPU:   0.51 sec, npass=  1  Memory used:   2.36 MW

 Reference energy:                   -193.95713837

                        CORR.ENERGY   TOTAL ENERGY   ENERGY CHANGE
 MP2:                   -0.68295019  -194.64008856    -0.68295019

 SCS-MP2 correlation energy:           -0.67920457   (PS=  1.200000  PT=  0.333333)
 SCS-MP2 total energy:               -194.63634294
 Iteration:   1     0.2381D+00
 Iteration:   2     0.1040D+01
 Iteration:   3     0.1101D+00
 Iteration:   4     0.1355D+00
 Iteration:   5     0.3042D-01
 Iteration:   6     0.3738D-01
 Iteration:   7     0.2509D-01
 Iteration:   8     0.1993D-01
 Iteration:   9     0.3272D-01
 Iteration:  10     0.1059D-01
 Iteration:  11     0.3022D+00
 Iteration:  12     0.4649D-02
 Iteration:  13     0.1730D-01
 Iteration:  14     0.2452D-02
 Iteration:  15     0.1920D-02
 Iteration:  16     0.9764D-02
 Iteration:  17     0.7169D-03
 Iteration:  18     0.7822D-03
 Iteration:  19     0.5709D-03
 Iteration:  20     0.1939D-03
 Iteration:  21     0.3617D-03
 Iteration:  22     0.7674D-04
 PAPT operator written to  7000.1
 PAPT orbitals and eigenvalues written to  7000.2

 MP3(D):                -0.72694369  -194.68408206    -0.04399350



 RESULTS
 =======

  Reference energy                   -193.957138369161
  MP3 singlet pair energy              -0.498346920444
  MP3 triplet pair energy              -0.228596767756
  MP3 correlation energy               -0.726943688200

 !MP3 total energy                   -194.684082057361

 Timing summary (sec):

 STEP                 CPU(USER)    SYS     CPU(TOT)    WALL
 Transformation          0.58      0.06      0.64      0.78
 CCSD iterations        13.49      0.19     13.68      8.17

 Program statistics:

 Available memory in ccsd:               805305565
 Min. memory needed in ccsd:               2197782
 Max. memory used in ccsd:                 2899161
 Max. memory used in cckext:               2693716 ( 1 integral passes)



 **********************************************************************************************************************************
 DATASETS  * FILE   NREC   LENGTH (MB)   RECORD NAMES
              1      21      105.71       500      610      700      900      950      970     1000      129      960     1100   
                                          VAR    BASINP    GEOM    SYMINP    ZMAT    AOBASIS   BASIS     P2S    ABASIS      S 
                                         1400     1410     1200     1210     1080     1600     1650     1300     1700     1380   
                                           T        V       H0       H01     AOSYM     SMH    MOLCAS    ERIS     OPER     JKOP   
                                         7000   
                                        PAPT AO    

              2       5        1.15       700     1000      520     2100     7000   
                                         GEOM     BASIS   MCVARS     RHF     PAPT   

 PROGRAMS   *        TOTAL      PAPT    HF-SCF       INT
 CPU TIMES  *        13.79      8.39      2.12      3.15
 REAL TIME  *        17.59 SEC
 DISK USED  *       291.84 MB
 **********************************************************************************************************************************


 PROGRAM * MP4 (Closed-shell)     Authors: C. Hampel, H.-J. Werner, 1991, M. Deegan, P.J. Knowles, 1992


 Convergence thresholds:  THRVAR = 1.00D-08  THRDEN = 1.00D-06

 MP4(T)     terms to be evaluated (factor= 0.000)


 Number of core orbitals:           5 (   5 )
 Number of closed-shell orbitals:  14 (  14 )
 Number of external orbitals:      91 (  91 )

 Molecular orbitals read from record     7000.2  Type=PAPT/CANONICAL (state 1.1)

 Number of N-1 electron functions:              14
 Number of N-2 electron functions:             105
 Number of singly external CSFs:              1274
 Number of doubly external CSFs:            812175
 Total number of CSFs:                      813450

 Length of J-op  integral file:               0.00 MB
 Length of K-op  integral file:               0.89 MB

 Memory could be reduced to 14.62 Mwords without degradation in triples

 Integral transformation finished. Total CPU:   1.22 sec, npass=  1  Memory used:  12.43 MW
 Orbital energies read from record       7000.2  Type=PAPT/CANONICAL (state 1.1)

 Reference energy:                   -193.95713837

                        CORR.ENERGY   TOTAL ENERGY   ENERGY CHANGE
 MP2:                   -0.73684295  -194.69398132    -0.73684295

 SCS-MP2 correlation energy:           -0.73760774   (PS=  1.200000  PT=  0.333333)
 SCS-MP2 total energy:               -194.69474611

 MP3(D):                -0.73722303  -194.69436140    -0.00038008
 MP4(DQ):               -0.73155408  -194.68869245     0.00566895
 MP4(SDQ):              -0.73665660  -194.69379497    -0.00510252

 Norm of t1 vector:      0.05897321      S-energy:    -0.00510252      T1 diagnostic:  0.00788063

 Largest off-diagonal element in interal  block of Fock matrix:  0.82D-01
 Largest off-diagonal element in external block of Fock matrix:  0.14D+00


 Total CPU time for triples:     38.14 sec


 RESULTS
 =======

  Reference energy                   -193.957138369161
  MP4(SDQ) singlet pair energy         -0.503013525768
  MP4(SDQ) triplet pair energy         -0.228540551869
  MP4(SDQ) correlation energy          -0.736656599282

  Triples contribution                 -0.029730661428
  Total correlation energy             -0.766387260710

  MP4(SDQ) total energy              -194.693794968443
 !MP4(SDTQ) total energy             -194.723525629871

 Timing summary (sec):

 STEP                 CPU(USER)    SYS     CPU(TOT)    WALL
 Transformation          1.47      0.17      1.64      1.95
 CCSD iterations        18.62      0.07     18.69      4.62
 Triples                38.14      1.37     39.51     39.92

 Program statistics:

 Available memory in ccsd:               805305565
 Min. memory needed in ccsd:               2197782
 Max. memory used in ccsd:                 2899161
 Max. memory used in cckext:               2693716 ( 1 integral passes)



 **********************************************************************************************************************************
 DATASETS  * FILE   NREC   LENGTH (MB)   RECORD NAMES
              1      22      146.40       500      610      700      900      950      970     1000      129      960     1100   
                                          VAR    BASINP    GEOM    SYMINP    ZMAT    AOBASIS   BASIS     P2S    ABASIS      S 
                                         1400     1410     1200     1210     1080     1600     1650     1300     1700     1380   
                                           T        V       H0       H01     AOSYM     SMH    MOLCAS    ERIS     OPER     JKOP   
                                         7000     1380(1)
                                        PAPT AO   JKOP   

              2       5        1.15       700     1000      520     2100     7000   
                                         GEOM     BASIS   MCVARS     RHF     PAPT   

 PROGRAMS   *        TOTAL       MP4      PAPT    HF-SCF       INT
 CPU TIMES  *        57.95     44.16      8.39      2.12      3.15
 REAL TIME  *        64.13 SEC
 DISK USED  *       291.84 MB
 **********************************************************************************************************************************

 Dump information in style XML to xml output                                                                      

 Orbitals will not be exported.

 **********************************************************************************************************************************

 MP4/cc-pVDZ energy=   -194.723525629871

             MP4            PAPT          HF-SCF
   -194.72352563   -194.68408206   -193.95713837
 **********************************************************************************************************************************
 Molpro calculation terminated
