
 Working directory              : /home/jovyan/scratch/molpro.MX2npc17X0/
 Global scratch directory       : /home/jovyan/scratch/molpro.MX2npc17X0/
 Wavefunction directory         : /home/jovyan/wfu/
 Main file repository           : /home/jovyan/scratch/molpro.MX2npc17X0/

 id        : cardiff

 Nodes                nprocs
 jupyter-c-2efrancisan    1
 GA implementation: MPI file
 GA implementation (serial work in mppx): MPI file

 Using customized tuning parameters: mindgm=1; mindgv=20; mindgc=4; mindgr=1; noblas=0; minvec=7
 default implementation of scratch files=df  


 Variables initialized (1031), CPU time= 0.00 sec
 
 
 
 geometry={
            3
     C          0.37482171      0.51783010      0.00000000
     N          0.37482171     -0.67052208      0.00000000
     H         -0.74964343      0.15269198      0.00000000
 }
 basis=cc-pVDZ
 angstrom
 
 
 hf; mp3
 
 
 
 {put,xml;noorbitals,nobasis}
 Commands initialized (841), CPU time= 0.01 sec, 704 directives.
 Default parameters read. Elapsed time= 0.09 sec

 Checking input...
 Passed
1


                                         ***  PROGRAM SYSTEM MOLPRO  ***
                                       Copyright, TTI GmbH Stuttgart, 2015
                                    Version 2023.1 linked Mon Jun  5 13:27:10 2023


 **********************************************************************************************************************************
 LABEL *                                                                                                                                                                 
  (16 PROC) 64 bit serial version                                                        DATE: 02-Aug-23          TIME: 15:36:48  
 **********************************************************************************************************************************

 SHA1:             9738a14712571edd23541b6d7c4f3a3d766f8287
 **********************************************************************************************************************************

 Memory per process:       805 MW
 Total memory per node:   1074 MW
 Total GA space:           268 MW

 GA preallocation disabled
 GA check enabled

 Geometry recognized as XYZ


 Variable memory set to 805.3 MW

 SETTING BASIS          =    CC-PVDZ


 Recomputing integrals since basis changed


 Using spherical harmonics

 Library entry C      S cc-pVDZ              selected for orbital group  1
 Library entry C      P cc-pVDZ              selected for orbital group  1
 Library entry C      D cc-pVDZ              selected for orbital group  1
 Library entry N      S cc-pVDZ              selected for orbital group  2
 Library entry N      P cc-pVDZ              selected for orbital group  2
 Library entry N      D cc-pVDZ              selected for orbital group  2
 Library entry H      S cc-pVDZ              selected for orbital group  3
 Library entry H      P cc-pVDZ              selected for orbital group  3


 PROGRAM * SEWARD (Integral evaluation for generally contracted gaussian basis sets)     Author: Roland Lindh, 1990

 Geometry written to block  1 of record 700


 Point group  Cs  



 ATOMIC COORDINATES

 NR  ATOM    CHARGE       X              Y              Z

   1  C       6.00    0.708310377    0.978557068    0.000000000
   2  N       7.00    0.708310377   -1.267103092    0.000000000
   3  H       1.00   -1.416620774    0.288546024    0.000000000

 Bond lengths in Bohr (Angstrom)

 1-2  2.245660160  1-3  2.234154793  2-3  2.633510313
     ( 1.188352180)     ( 1.182263802)     ( 1.393593642)

 Bond angles

  1-2-3   53.79236971   1-3-2   54.19736348   2-1-3   72.01026681

 NUCLEAR CHARGE:                   14
 NUMBER OF PRIMITIVE AOS:          61
 NUMBER OF SYMMETRY AOS:           59
 NUMBER OF CONTRACTIONS:           33   (   24A'  +    9A"  )
 NUMBER OF INNER CORE ORBITALS:     0   (    0A'  +    0A"  )
 NUMBER OF OUTER CORE ORBITALS:     2   (    2A'  +    0A"  )
 NUMBER OF VALENCE ORBITALS:        9   (    7A'  +    2A"  )


 NUCLEAR REPULSION ENERGY   24.04636942

 Eigenvalues of metric

         1 0.659E-02 0.192E-01 0.533E-01 0.593E-01 0.109E+00 0.122E+00 0.128E+00 0.150E+00
         2 0.128E+00 0.189E+00 0.316E+00 0.586E+00 0.890E+00 0.114E+01 0.135E+01 0.143E+01


 Contracted 2-electron integrals neglected if value below      1.0D-11
 AO integral compression algorithm  1   Integral accuracy      1.0D-11

     0.524 MB (compressed) written to integral file ( 74.3%)


 NUMBER OF SORTED TWO-ELECTRON INTEGRALS:      86685.     BUFFER LENGTH:  32768
 NUMBER OF SEGMENTS:   1  SEGMENT LENGTH:      86685      RECORD LENGTH: 524288

 Memory used in sort:       0.64 MW

 SORT1 READ      110522. AND WROTE       63387. INTEGRALS IN      1 RECORDS. CPU TIME:     0.01 SEC, REAL TIME:     0.06 SEC
 SORT2 READ       63387. AND WROTE       86685. INTEGRALS IN      2 RECORDS. CPU TIME:     0.01 SEC, REAL TIME:     0.01 SEC

 FILE SIZES:   FILE 1:    30.6 MBYTE,  FILE 4:     4.3 MBYTE,   TOTAL:     34.8 MBYTE

 OPERATOR DM      FOR CENTER  0  COORDINATES:    0.000000    0.000000    0.000000


 **********************************************************************************************************************************
 DATASETS  * FILE   NREC   LENGTH (MB)   RECORD NAMES
              1      19       29.00       500      610      700      900      950      970     1000      129      960     1100   
                                          VAR    BASINP    GEOM    SYMINP    ZMAT    AOBASIS   BASIS     P2S    ABASIS      S 
                                         1400     1410     1200     1210     1080     1600     1650     1300     1700   
                                           T        V       H0       H01     AOSYM     SMH    MOLCAS    ERIS     OPER   

 PROGRAMS   *        TOTAL       INT
 CPU TIMES  *         0.55      0.40
 REAL TIME  *         1.88 SEC
 DISK USED  *        33.57 MB
 **********************************************************************************************************************************


 Program * Restricted Hartree-Fock

 Orbital guess generated from atomic densities. Full valence occupancy:    9   2

 Initial occupancy:   6   1

 NELEC=   14   SYM=1   MS2= 0   THRE=1.0D-08   THRD=3.2D-06   THRG=3.2D-06  HFMA2=F  DIIS_START=2   DIIS_MAX=10   DIIS_INCORE=F

 Level shifts:    0.00 (CLOSED)    0.00 (OPEN)    0.30 (GAP_MIN)

 ITER           ETOT              DE          GRAD        DDIFF     DIIS  NEXP   TIME(IT)  TIME(TOT)  DIAG
   1      -92.78984082     -92.78984082     0.00D+00     0.25D+00     0     0       0.00      0.01    start
   2      -92.80521303      -0.01537221     0.94D-02     0.22D-01     1     0       0.00      0.01    diag
   3      -92.80714981      -0.00193677     0.27D-02     0.51D-02     2     0       0.00      0.01    diag
   4      -92.80784890      -0.00069909     0.13D-02     0.36D-02     3     0       0.00      0.01    diag
   5      -92.80807583      -0.00022693     0.79D-03     0.18D-02     4     0       0.00      0.01    diag
   6      -92.80816587      -0.00009004     0.38D-03     0.16D-02     5     0       0.01      0.02    diag
   7      -92.80817165      -0.00000578     0.10D-03     0.44D-03     6     0       0.00      0.02    diag
   8      -92.80817187      -0.00000022     0.24D-04     0.85D-04     7     0       0.00      0.02    fixocc
   9      -92.80817189      -0.00000001     0.60D-05     0.19D-04     8     0       0.00      0.02    diag
  10      -92.80817189      -0.00000000     0.16D-05     0.40D-05     9     0       0.00      0.02    diag/orth
  11      -92.80817189      -0.00000000     0.52D-06     0.16D-05     9     0       0.00      0.02    diag
  12      -92.80817189      -0.00000000     0.16D-06     0.30D-06     0     0       0.00      0.02    diag

 Final occupancy:   6   1

 !RHF STATE 1.1 Energy                -92.808171888893
  RHF One-electron energy            -172.490767537898
  RHF Two-electron energy              55.636226233776
  RHF Kinetic energy                   92.678769145336
  RHF Nuclear energy                   24.046369415229
  RHF Virial quotient                  -1.001396250131

 !RHF STATE 1.1 Dipole moment          -0.52711153     0.00906178     0.00000000
 Dipole moment /Debye                  -1.33978387     0.02303274     0.00000000

 Orbital energies:

           1.1          2.1          3.1          4.1          5.1          6.1          7.1          8.1
    -15.657818   -11.300061    -1.306842    -0.703245    -0.621806    -0.491900     0.116250     0.189861

           1.2          2.2          3.2
     -0.527487     0.177170     0.686897


 HOMO      6.1    -0.491900 =     -13.3853eV
 LUMO      7.1     0.116250 =       3.1633eV
 LUMO-HOMO         0.608150 =      16.5486eV

 Orbitals saved in record  2100.2


 **********************************************************************************************************************************
 DATASETS  * FILE   NREC   LENGTH (MB)   RECORD NAMES
              1      19       29.00       500      610      700      900      950      970     1000      129      960     1100   
                                          VAR    BASINP    GEOM    SYMINP    ZMAT    AOBASIS   BASIS     P2S    ABASIS      S 
                                         1400     1410     1200     1210     1080     1600     1650     1300     1700   
                                           T        V       H0       H01     AOSYM     SMH    MOLCAS    ERIS     OPER   

              2       4        0.42       700     1000      520     2100   
                                         GEOM     BASIS   MCVARS     RHF  

 PROGRAMS   *        TOTAL    HF-SCF       INT
 CPU TIMES  *         0.58      0.03      0.40
 REAL TIME  *         2.01 SEC
 DISK USED  *        33.57 MB
 **********************************************************************************************************************************


 PROGRAM * MP3 (Closed-shell)     Authors: C. Hampel, H.-J. Werner, 1991, M. Deegan, P.J. Knowles, 1992


 Convergence thresholds:  THRVAR = 1.00D-08  THRDEN = 1.00D-06

 Number of core orbitals:           2 (   2   0 )
 Number of closed-shell orbitals:   5 (   4   1 )
 Number of external orbitals:      26 (  18   8 )

 Molecular orbitals read from record     2100.2  Type=RHF/CANONICAL  

 Number of N-1 electron functions:               5
 Number of N-2 electron functions:              15
 Number of singly external CSFs:                80
 Number of doubly external CSFs:              4515
 Total number of CSFs:                        4596

 Length of J-op  integral file:               0.00 MB
 Length of K-op  integral file:               0.11 MB

 Integral transformation finished. Total CPU:   0.00 sec, npass=  1  Memory used:   0.08 MW

 Reference energy:                    -92.80817189

                        CORR.ENERGY   TOTAL ENERGY   ENERGY CHANGE
 MP2:                   -0.27660287   -93.08477476    -0.27660287

 SCS-MP2 correlation energy:           -0.27021532   (PS=  1.200000  PT=  0.333333)
 SCS-MP2 total energy:                -93.07838720

 MP3(D):                -0.28434212   -93.09251401    -0.00773925



 RESULTS
 =======

  Reference energy                    -92.808171888893
  MP3 singlet pair energy              -0.188280955296
  MP3 triplet pair energy              -0.096061165811
  MP3 correlation energy               -0.284342121107

 !MP3 total energy                    -93.092514010000

 Timing summary (sec):

 STEP                 CPU(USER)    SYS     CPU(TOT)    WALL
 CCSD iterations         0.99      0.00      0.99      0.02

 Program statistics:

 Available memory in ccsd:               805306262
 Min. memory needed in ccsd:                 22498
 Max. memory used in ccsd:                   24938
 Max. memory used in cckext:                 60353 ( 1 integral passes)



 **********************************************************************************************************************************
 DATASETS  * FILE   NREC   LENGTH (MB)   RECORD NAMES
              1      20       29.11       500      610      700      900      950      970     1000      129      960     1100   
                                          VAR    BASINP    GEOM    SYMINP    ZMAT    AOBASIS   BASIS     P2S    ABASIS      S 
                                         1400     1410     1200     1210     1080     1600     1650     1300     1700     1380   
                                           T        V       H0       H01     AOSYM     SMH    MOLCAS    ERIS     OPER     JKOP   

              2       4        0.42       700     1000      520     2100   
                                         GEOM     BASIS   MCVARS     RHF  

 PROGRAMS   *        TOTAL       MP3    HF-SCF       INT
 CPU TIMES  *         0.63      0.05      0.03      0.40
 REAL TIME  *         2.25 SEC
 DISK USED  *        33.57 MB
 **********************************************************************************************************************************

 Dump information in style XML to xml output                                                                      

 Orbitals will not be exported.

 **********************************************************************************************************************************

 MP3/cc-pVDZ energy=    -93.092514010000

             MP3          HF-SCF
    -93.09251401    -92.80817189
 **********************************************************************************************************************************
 Molpro calculation terminated
