
 Working directory              : /home/jovyan/scratch/molpro.hjn8HMc8wF/
 Global scratch directory       : /home/jovyan/scratch/molpro.hjn8HMc8wF/
 Wavefunction directory         : /home/jovyan/wfu/
 Main file repository           : /home/jovyan/scratch/molpro.hjn8HMc8wF/

 id        : cardiff

 Nodes                nprocs
 jupyter-c-2efrancisan    1
 GA implementation: MPI file
 GA implementation (serial work in mppx): MPI file

 Using customized tuning parameters: mindgm=1; mindgv=20; mindgc=4; mindgr=1; noblas=0; minvec=7
 default implementation of scratch files=df  


 Variables initialized (1031), CPU time= 0.00 sec
 
 
 
 geometry={
 4
  O     0.0402907   -0.7150390   -0.2337508
  O    -0.0402907    0.7150390   -0.2337508
  H    -0.7702468   -0.9380581    0.2337569
  H     0.7702468    0.9380581    0.2337569
 }
 basis=cc-pVDZ
 angstrom
 
 
 hf; mp2
 
 
 
 {put,xml;noorbitals,nobasis}
 Commands initialized (841), CPU time= 0.01 sec, 704 directives.
 Default parameters read. Elapsed time= 0.08 sec

 Checking input...
 Passed
1


                                         ***  PROGRAM SYSTEM MOLPRO  ***
                                       Copyright, TTI GmbH Stuttgart, 2015
                                    Version 2023.1 linked Mon Jun  5 13:27:10 2023


 **********************************************************************************************************************************
 LABEL *                                                                                                                                                                 
  (16 PROC) 64 bit serial version                                                        DATE: 03-Aug-23          TIME: 10:26:59  
 **********************************************************************************************************************************

 SHA1:             9738a14712571edd23541b6d7c4f3a3d766f8287
 **********************************************************************************************************************************

 Memory per process:       805 MW
 Total memory per node:   1074 MW
 Total GA space:           268 MW

 GA preallocation disabled
 GA check enabled

 Geometry recognized as XYZ


 Variable memory set to 805.3 MW

 SETTING BASIS          =    CC-PVDZ


 Recomputing integrals since basis changed


 Using spherical harmonics

 Library entry O      S cc-pVDZ              selected for orbital group  1
 Library entry O      P cc-pVDZ              selected for orbital group  1
 Library entry O      D cc-pVDZ              selected for orbital group  1
 Library entry H      S cc-pVDZ              selected for orbital group  2
 Library entry H      P cc-pVDZ              selected for orbital group  2


 PROGRAM * SEWARD (Integral evaluation for generally contracted gaussian basis sets)     Author: Roland Lindh, 1990

 Geometry written to block  1 of record 700


 Point group  C2  



 ATOMIC COORDINATES

 NR  ATOM    CHARGE       X              Y              Z

   1  O       8.00    0.076138388   -1.351227878   -0.441724993
   2  O       8.00   -0.076138388    1.351227878   -0.441724993
   3  H       1.00   -1.455555500   -1.772672898    0.441736521
   4  H       1.00    1.455555500    1.772672898    0.441736521

 Bond lengths in Bohr (Angstrom)

 1-2  2.706742569  1-3  1.817747595  2-4  1.817747595
     ( 1.432346483)     ( 0.961910603)     ( 0.961910603)

 Bond angles

  1-2-4  100.60737277   2-1-3  100.60737277

 NUCLEAR CHARGE:                   18
 NUMBER OF PRIMITIVE AOS:          68
 NUMBER OF SYMMETRY AOS:           66
 NUMBER OF CONTRACTIONS:           38   (   19A   +   19B   )
 NUMBER OF INNER CORE ORBITALS:     0   (    0A   +    0B   )
 NUMBER OF OUTER CORE ORBITALS:     2   (    1A   +    1B   )
 NUMBER OF VALENCE ORBITALS:       10   (    5A   +    5B   )


 NUCLEAR REPULSION ENERGY   37.20075843

 Eigenvalues of metric

         1 0.240E-01 0.467E-01 0.138E+00 0.156E+00 0.197E+00 0.222E+00 0.553E+00 0.573E+00
         2 0.120E-01 0.472E-01 0.888E-01 0.149E+00 0.170E+00 0.188E+00 0.425E+00 0.563E+00


 Contracted 2-electron integrals neglected if value below      1.0D-11
 AO integral compression algorithm  1   Integral accuracy      1.0D-11

     1.049 MB (compressed) written to integral file ( 59.0%)


 NUMBER OF SORTED TWO-ELECTRON INTEGRALS:     144590.     BUFFER LENGTH:  32768
 NUMBER OF SEGMENTS:   1  SEGMENT LENGTH:     144590      RECORD LENGTH: 524288

 Memory used in sort:       0.70 MW

 SORT1 READ      245816. AND WROTE      123438. INTEGRALS IN      1 RECORDS. CPU TIME:     0.00 SEC, REAL TIME:     0.07 SEC
 SORT2 READ      123438. AND WROTE      144590. INTEGRALS IN      4 RECORDS. CPU TIME:     0.02 SEC, REAL TIME:     0.02 SEC

 FILE SIZES:   FILE 1:    31.1 MBYTE,  FILE 4:     4.3 MBYTE,   TOTAL:     35.4 MBYTE

 OPERATOR DM      FOR CENTER  0  COORDINATES:    0.000000    0.000000    0.000000


 **********************************************************************************************************************************
 DATASETS  * FILE   NREC   LENGTH (MB)   RECORD NAMES
              1      19       29.27       500      610      700      900      950      970     1000      129      960     1100   
                                          VAR    BASINP    GEOM    SYMINP    ZMAT    AOBASIS   BASIS     P2S    ABASIS      S 
                                         1400     1410     1200     1210     1080     1600     1650     1300     1700   
                                           T        V       H0       H01     AOSYM     SMH    MOLCAS    ERIS     OPER   

 PROGRAMS   *        TOTAL       INT
 CPU TIMES  *         0.57      0.43
 REAL TIME  *         1.60 SEC
 DISK USED  *        34.11 MB
 **********************************************************************************************************************************


 Program * Restricted Hartree-Fock

 Orbital guess generated from atomic densities. Full valence occupancy:    6   6

 Initial occupancy:   5   4

 NELEC=   18   SYM=1   MS2= 0   THRE=1.0D-08   THRD=3.2D-06   THRG=3.2D-06  HFMA2=F  DIIS_START=2   DIIS_MAX=10   DIIS_INCORE=F

 Level shifts:    0.00 (CLOSED)    0.00 (OPEN)    0.30 (GAP_MIN)

 ITER           ETOT              DE          GRAD        DDIFF     DIIS  NEXP   TIME(IT)  TIME(TOT)  DIAG
   1     -150.75915476    -150.75915476     0.00D+00     0.29D+00     0     0       0.00      0.00    start
   2     -150.78431565      -0.02516089     0.15D-01     0.30D-01     1     0       0.00      0.00    diag
   3     -150.78525102      -0.00093537     0.29D-02     0.47D-02     2     0       0.00      0.00    diag
   4     -150.78535662      -0.00010560     0.79D-03     0.18D-02     3     0       0.01      0.01    diag
   5     -150.78536800      -0.00001138     0.29D-03     0.48D-03     4     0       0.00      0.01    diag
   6     -150.78536881      -0.00000081     0.54D-04     0.11D-03     5     0       0.00      0.01    diag
   7     -150.78536884      -0.00000003     0.99D-05     0.23D-04     6     0       0.00      0.01    diag
   8     -150.78536885      -0.00000000     0.26D-05     0.68D-05     7     0       0.01      0.02    fixocc
   9     -150.78536885      -0.00000000     0.64D-06     0.17D-05     8     0       0.00      0.02    diag
  10     -150.78536885      -0.00000000     0.15D-06     0.30D-06     0     0       0.00      0.02    diag/orth

 Final occupancy:   5   4

 !RHF STATE 1.1 Energy               -150.785368846926
  RHF One-electron energy            -282.123403951003
  RHF Two-electron energy              94.137276671770
  RHF Kinetic energy                  150.704496363104
  RHF Nuclear energy                   37.200758432308
  RHF Virial quotient                  -1.000536629535

 !RHF STATE 1.1 Dipole moment           0.00000000     0.00000000     0.69724962
 Dipole moment /Debye                   0.00000000     0.00000000     1.77223176

 Orbital energies:

           1.1          2.1          3.1          4.1          5.1          6.1          7.1
    -20.621392    -1.477229    -0.704135    -0.605665    -0.512473     0.189757     0.827400

           1.2          2.2          3.2          4.2          5.2          6.2
    -20.621088    -1.205551    -0.708218    -0.468675     0.195121     0.317224


 HOMO      4.2    -0.468675 =     -12.7533eV
 LUMO      6.1     0.189757 =       5.1635eV
 LUMO-HOMO         0.658432 =      17.9169eV

 Orbitals saved in record  2100.2


 **********************************************************************************************************************************
 DATASETS  * FILE   NREC   LENGTH (MB)   RECORD NAMES
              1      19       29.27       500      610      700      900      950      970     1000      129      960     1100   
                                          VAR    BASINP    GEOM    SYMINP    ZMAT    AOBASIS   BASIS     P2S    ABASIS      S 
                                         1400     1410     1200     1210     1080     1600     1650     1300     1700   
                                           T        V       H0       H01     AOSYM     SMH    MOLCAS    ERIS     OPER   

              2       4        0.44       700     1000      520     2100   
                                         GEOM     BASIS   MCVARS     RHF  

 PROGRAMS   *        TOTAL    HF-SCF       INT
 CPU TIMES  *         0.59      0.02      0.43
 REAL TIME  *         1.64 SEC
 DISK USED  *        34.11 MB
 **********************************************************************************************************************************


 PROGRAM * MP2 (Closed-shell)     Authors: C. Hampel, H.-J. Werner, 1991, M. Deegan, P.J. Knowles, 1992


 Convergence thresholds:  THRVAR = 1.00D-08  THRDEN = 1.00D-06

 Number of core orbitals:           2 (   1   1 )
 Number of closed-shell orbitals:   7 (   4   3 )
 Number of external orbitals:      29 (  14  15 )

 Molecular orbitals read from record     2100.2  Type=RHF/CANONICAL  

 Number of N-1 electron functions:               7
 Number of N-2 electron functions:              28
 Number of singly external CSFs:               101
 Number of doubly external CSFs:             10404
 Total number of CSFs:                       10506

 Length of J-op  integral file:               0.00 MB
 Length of K-op  integral file:               0.11 MB

 Integral transformation finished. Total CPU:   0.01 sec, npass=  1  Memory used:   0.09 MW

 Memory needed for MP2:                      0.00 MW

 SCS-MP2 correlation energy:           -0.376500202589   (PS=  1.200000  PT=  0.333333)
 SCS-MP2 total energy:               -151.161869049514


  Reference energy                   -150.785368846926
  MP2 singlet pair energy              -0.237334740030
  MP2 triplet pair energy              -0.147372612674
  MP2 correlation energy               -0.384707352704

 !MP2 total energy                   -151.170076199630


 **********************************************************************************************************************************
 DATASETS  * FILE   NREC   LENGTH (MB)   RECORD NAMES
              1      20       29.52       500      610      700      900      950      970     1000      129      960     1100   
                                          VAR    BASINP    GEOM    SYMINP    ZMAT    AOBASIS   BASIS     P2S    ABASIS      S 
                                         1400     1410     1200     1210     1080     1600     1650     1300     1700     1380   
                                           T        V       H0       H01     AOSYM     SMH    MOLCAS    ERIS     OPER     JKOP   

              2       4        0.44       700     1000      520     2100   
                                         GEOM     BASIS   MCVARS     RHF  

 PROGRAMS   *        TOTAL       MP2    HF-SCF       INT
 CPU TIMES  *         0.65      0.06      0.02      0.43
 REAL TIME  *         1.72 SEC
 DISK USED  *        34.11 MB
 **********************************************************************************************************************************

 Dump information in style XML to xml output                                                                      

 Orbitals will not be exported.

 **********************************************************************************************************************************

 MP2/cc-pVDZ energy=   -151.170076199630

             MP2          HF-SCF
   -151.17007620   -150.78536885
 **********************************************************************************************************************************
 Molpro calculation terminated
