
 Working directory              : /home/jovyan/scratch/molpro.u5gfPolCk7/
 Global scratch directory       : /home/jovyan/scratch/molpro.u5gfPolCk7/
 Wavefunction directory         : /home/jovyan/wfu/
 Main file repository           : /home/jovyan/scratch/molpro.u5gfPolCk7/

 id        : cardiff

 Nodes                nprocs
 jupyter-c-2efrancisan    1
 GA implementation: MPI file
 GA implementation (serial work in mppx): MPI file

 Using customized tuning parameters: mindgm=1; mindgv=20; mindgc=4; mindgr=1; noblas=0; minvec=7
 default implementation of scratch files=df  


 Variables initialized (1031), CPU time= 0.01 sec
 
 
 
 geometry={
 3
    O   -0.02085472758024      0.00000000000000     -0.01495598121153
    H   0.01876805202920      0.00000000000000      0.94578209125484
    H   0.89775667555104      0.00000000000000     -0.29748911004330
 }
 basis=cc-pVTZ
 angstrom
 
 
 hf; papt;mp3
 
 
 
 {put,xml;noorbitals,nobasis}
 Commands initialized (841), CPU time= 0.01 sec, 704 directives.
 Default parameters read. Elapsed time= 0.08 sec

 Checking input...
 Passed
1


                                         ***  PROGRAM SYSTEM MOLPRO  ***
                                       Copyright, TTI GmbH Stuttgart, 2015
                                    Version 2023.1 linked Mon Jun  5 13:27:10 2023


 **********************************************************************************************************************************
 LABEL *                                                                                                                                                                 
  (16 PROC) 64 bit serial version                                                        DATE: 02-Aug-23          TIME: 15:35:27  
 **********************************************************************************************************************************

 SHA1:             9738a14712571edd23541b6d7c4f3a3d766f8287
 **********************************************************************************************************************************

 Memory per process:       805 MW
 Total memory per node:   1074 MW
 Total GA space:           268 MW

 GA preallocation disabled
 GA check enabled

 Geometry recognized as XYZ


 Variable memory set to 805.3 MW

 SETTING BASIS          =    CC-PVTZ


 Recomputing integrals since basis changed


 Using spherical harmonics

 Library entry O      S cc-pVTZ              selected for orbital group  1
 Library entry O      P cc-pVTZ              selected for orbital group  1
 Library entry O      D cc-pVTZ              selected for orbital group  1
 Library entry O      F cc-pVTZ              selected for orbital group  1
 Library entry H      S cc-pVTZ              selected for orbital group  2
 Library entry H      P cc-pVTZ              selected for orbital group  2
 Library entry H      D cc-pVTZ              selected for orbital group  2


 PROGRAM * SEWARD (Integral evaluation for generally contracted gaussian basis sets)     Author: Roland Lindh, 1990

 Geometry written to block  1 of record 700


 Point group  Cs  



 ATOMIC COORDINATES

 NR  ATOM    CHARGE       X              Y              Z

   1  O       8.00   -0.039409724    0.000000000   -0.028262708
   2  H       1.00    0.035466478    0.000000000    1.787269126
   3  H       1.00    1.696514243    0.000000000   -0.562172943

 Bond lengths in Bohr (Angstrom)

 1-2  1.817075201  1-3  1.816175145
     ( 0.961554787)     ( 0.961078498)

 Bond angles

  2-1-3  104.73443354

 NUCLEAR CHARGE:                   10
 NUMBER OF PRIMITIVE AOS:          81
 NUMBER OF SYMMETRY AOS:           74
 NUMBER OF CONTRACTIONS:           58   (   40A'  +   18A"  )
 NUMBER OF INNER CORE ORBITALS:     0   (    0A'  +    0A"  )
 NUMBER OF OUTER CORE ORBITALS:     1   (    1A'  +    0A"  )
 NUMBER OF VALENCE ORBITALS:        6   (    5A'  +    1A"  )


 NUCLEAR REPULSION ENERGY    9.15508706

 Eigenvalues of metric

         1 0.259E-02 0.476E-02 0.586E-02 0.773E-02 0.109E-01 0.419E-01 0.480E-01 0.697E-01
         2 0.404E-01 0.109E+00 0.116E+00 0.247E+00 0.318E+00 0.448E+00 0.523E+00 0.542E+00


 Contracted 2-electron integrals neglected if value below      1.0D-11
 AO integral compression algorithm  1   Integral accuracy      1.0D-11

     4.456 MB (compressed) written to integral file ( 61.8%)


 NUMBER OF SORTED TWO-ELECTRON INTEGRALS:     771976.     BUFFER LENGTH:  32768
 NUMBER OF SEGMENTS:   1  SEGMENT LENGTH:     771976      RECORD LENGTH: 524288

 Memory used in sort:       1.33 MW

 SORT1 READ      946216. AND WROTE      721371. INTEGRALS IN      3 RECORDS. CPU TIME:     0.01 SEC, REAL TIME:     0.10 SEC
 SORT2 READ      721371. AND WROTE      771976. INTEGRALS IN     17 RECORDS. CPU TIME:     0.04 SEC, REAL TIME:     0.05 SEC

 FILE SIZES:   FILE 1:    34.6 MBYTE,  FILE 4:    12.6 MBYTE,   TOTAL:     47.2 MBYTE

 OPERATOR DM      FOR CENTER  0  COORDINATES:    0.000000    0.000000    0.000000


 **********************************************************************************************************************************
 DATASETS  * FILE   NREC   LENGTH (MB)   RECORD NAMES
              1      19       32.09       500      610      700      900      950      970     1000      129      960     1100   
                                          VAR    BASINP    GEOM    SYMINP    ZMAT    AOBASIS   BASIS     P2S    ABASIS      S 
                                         1400     1410     1200     1210     1080     1600     1650     1300     1700   
                                           T        V       H0       H01     AOSYM     SMH    MOLCAS    ERIS     OPER   

 PROGRAMS   *        TOTAL       INT
 CPU TIMES  *         0.69      0.55
 REAL TIME  *         2.14 SEC
 DISK USED  *        45.39 MB
 **********************************************************************************************************************************


 Program * Restricted Hartree-Fock

 Orbital guess generated from atomic densities. Full valence occupancy:    6   1

 Initial occupancy:   4   1

 NELEC=   10   SYM=1   MS2= 0   THRE=1.0D-08   THRD=3.2D-06   THRG=3.2D-06  HFMA2=F  DIIS_START=2   DIIS_MAX=10   DIIS_INCORE=F

 Level shifts:    0.00 (CLOSED)    0.00 (OPEN)    0.30 (GAP_MIN)

 ITER           ETOT              DE          GRAD        DDIFF     DIIS  NEXP   TIME(IT)  TIME(TOT)  DIAG
   1      -76.01879582     -76.01879582     0.00D+00     0.14D+00     0     0       0.01      0.01    start
   2      -76.04664886      -0.02785304     0.17D-01     0.24D-01     1     0       0.00      0.01    diag
   3      -76.05665522      -0.01000636     0.10D-01     0.79D-02     2     0       0.01      0.02    diag
   4      -76.05684524      -0.00019002     0.97D-03     0.12D-02     3     0       0.01      0.03    diag
   5      -76.05686515      -0.00001991     0.27D-03     0.40D-03     4     0       0.01      0.04    diag
   6      -76.05686620      -0.00000105     0.52D-04     0.90D-04     5     0       0.00      0.04    diag
   7      -76.05686623      -0.00000003     0.90D-05     0.18D-04     6     0       0.01      0.05    diag
   8      -76.05686623      -0.00000000     0.13D-05     0.27D-05     7     0       0.01      0.06    fixocc
   9      -76.05686623      -0.00000000     0.13D-06     0.22D-06     0     0       0.00      0.06    diag

 Final occupancy:   4   1

 !RHF STATE 1.1 Energy                -76.056866233115
  RHF One-electron energy            -123.049336747843
  RHF Two-electron energy              37.837383457985
  RHF Kinetic energy                   75.989266791399
  RHF Nuclear energy                    9.155087056744
  RHF Virial quotient                  -1.000889591972

 !RHF STATE 1.1 Dipole moment           0.65028469     0.00000000     0.46011916
 Dipole moment /Debye                   1.65285882     0.00000000     1.16950625

 Orbital energies:

           1.1          2.1          3.1          4.1          5.1          6.1
    -20.555347    -1.343391    -0.707974    -0.576503     0.141881     0.203633

           1.2          2.2          3.2
     -0.504069     0.787418     0.859791


 HOMO      1.2    -0.504069 =     -13.7164eV
 LUMO      5.1     0.141881 =       3.8608eV
 LUMO-HOMO         0.645950 =      17.5772eV

 Orbitals saved in record  2100.2


 **********************************************************************************************************************************
 DATASETS  * FILE   NREC   LENGTH (MB)   RECORD NAMES
              1      19       32.09       500      610      700      900      950      970     1000      129      960     1100   
                                          VAR    BASINP    GEOM    SYMINP    ZMAT    AOBASIS   BASIS     P2S    ABASIS      S 
                                         1400     1410     1200     1210     1080     1600     1650     1300     1700   
                                           T        V       H0       H01     AOSYM     SMH    MOLCAS    ERIS     OPER   

              2       4        0.44       700     1000      520     2100   
                                         GEOM     BASIS   MCVARS     RHF  

 PROGRAMS   *        TOTAL    HF-SCF       INT
 CPU TIMES  *         0.76      0.07      0.55
 REAL TIME  *         2.36 SEC
 DISK USED  *        45.39 MB
 **********************************************************************************************************************************


 PROGRAM * PAPT (Closed-shell)     Authors: C. Hampel, H.-J. Werner, 1991, P.J. Knowles, 2021


 Convergence thresholds:  THRVAR = 1.00D-08  THRDEN = 1.00D-06

 Number of core orbitals:           1 (   1   0 )
 Number of closed-shell orbitals:   4 (   3   1 )
 Number of external orbitals:      53 (  36  17 )

 Molecular orbitals read from record     2100.2  Type=RHF/CANONICAL  

 Number of N-1 electron functions:               4
 Number of N-2 electron functions:              10
 Number of singly external CSFs:               125
 Number of doubly external CSFs:             11703
 Total number of CSFs:                       11829

 Length of J-op  integral file:               0.00 MB
 Length of K-op  integral file:               0.19 MB

 Integral transformation finished. Total CPU:   0.01 sec, npass=  1  Memory used:   0.10 MW

 Reference energy:                    -76.05686623

                        CORR.ENERGY   TOTAL ENERGY   ENERGY CHANGE
 MP2:                   -0.26173925   -76.31860548    -0.26173925

 SCS-MP2 correlation energy:           -0.25900119   (PS=  1.200000  PT=  0.333333)
 SCS-MP2 total energy:                -76.31586742
 Iteration:   1     0.2113D+00
 Iteration:   2     0.1938D+00
 Iteration:   3     0.8161D-01
 Iteration:   4     0.1171D-01
 Iteration:   5     0.1429D-01
 Iteration:   6     0.6547D-02
 Iteration:   7     0.1930D-02
 Iteration:   8     0.4577D-02
 Iteration:   9     0.8995D-03
 Iteration:  10     0.3962D-03
 Iteration:  11     0.8547D-02
 Iteration:  12     0.1437D-03
 Iteration:  13     0.2032D-04
 PAPT operator written to  7000.1
 PAPT orbitals and eigenvalues written to  7000.2

 MP3(D):                -0.26580383   -76.32267006    -0.00406458



 RESULTS
 =======

  Reference energy                    -76.056866233115
  MP3 singlet pair energy              -0.178332127270
  MP3 triplet pair energy              -0.087471702204
  MP3 correlation energy               -0.265803829474

 !MP3 total energy                    -76.322670062589

 Timing summary (sec):

 STEP                 CPU(USER)    SYS     CPU(TOT)    WALL
 Transformation          0.01      0.01      0.02      0.17
 CCSD iterations         1.18      0.01      1.19      0.78

 Program statistics:

 Available memory in ccsd:               805306300
 Min. memory needed in ccsd:                 60391
 Max. memory used in ccsd:                   68071
 Max. memory used in cckext:                109286 ( 1 integral passes)



 **********************************************************************************************************************************
 DATASETS  * FILE   NREC   LENGTH (MB)   RECORD NAMES
              1      21       32.34       500      610      700      900      950      970     1000      129      960     1100   
                                          VAR    BASINP    GEOM    SYMINP    ZMAT    AOBASIS   BASIS     P2S    ABASIS      S 
                                         1400     1410     1200     1210     1080     1600     1650     1300     1700     1380   
                                           T        V       H0       H01     AOSYM     SMH    MOLCAS    ERIS     OPER     JKOP   
                                         7000   
                                        PAPT AO    

              2       5        0.59       700     1000      520     2100     7000   
                                         GEOM     BASIS   MCVARS     RHF     PAPT   

 PROGRAMS   *        TOTAL      PAPT    HF-SCF       INT
 CPU TIMES  *         0.89      0.12      0.07      0.55
 REAL TIME  *         3.44 SEC
 DISK USED  *        45.39 MB
 **********************************************************************************************************************************


 PROGRAM * MP3 (Closed-shell)     Authors: C. Hampel, H.-J. Werner, 1991, M. Deegan, P.J. Knowles, 1992


 Convergence thresholds:  THRVAR = 1.00D-08  THRDEN = 1.00D-06

 Number of core orbitals:           1 (   1   0 )
 Number of closed-shell orbitals:   4 (   3   1 )
 Number of external orbitals:      53 (  36  17 )

 Molecular orbitals read from record     7000.2  Type=PAPT/CANONICAL (state 1.1)

 Number of N-1 electron functions:               4
 Number of N-2 electron functions:              10
 Number of singly external CSFs:               125
 Number of doubly external CSFs:             11703
 Total number of CSFs:                       11829

 Length of J-op  integral file:               0.00 MB
 Length of K-op  integral file:               0.19 MB

 Integral transformation finished. Total CPU:   0.01 sec, npass=  1  Memory used:   0.10 MW
 Orbital energies read from record       7000.2  Type=PAPT/CANONICAL (state 1.1)

 Reference energy:                    -76.05686623

                        CORR.ENERGY   TOTAL ENERGY   ENERGY CHANGE
 MP2:                   -0.26748992   -76.32435615    -0.26748992

 SCS-MP2 correlation energy:           -0.26534294   (PS=  1.200000  PT=  0.333333)
 SCS-MP2 total energy:                -76.32220917

 MP3(D):                -0.26753967   -76.32440590    -0.00004975



 RESULTS
 =======

  Reference energy                    -76.056866233115
  MP3 singlet pair energy              -0.179711401709
  MP3 triplet pair energy              -0.087828268423
  MP3 correlation energy               -0.267539670132

 !MP3 total energy                    -76.324405903247

 Timing summary (sec):

 STEP                 CPU(USER)    SYS     CPU(TOT)    WALL
 Transformation          0.02      0.00      0.02      0.23
 CCSD iterations         1.25      0.00      1.25      0.05

 Program statistics:

 Available memory in ccsd:               805306300
 Min. memory needed in ccsd:                 60391
 Max. memory used in ccsd:                   68071
 Max. memory used in cckext:                109286 ( 1 integral passes)



 **********************************************************************************************************************************
 DATASETS  * FILE   NREC   LENGTH (MB)   RECORD NAMES
              1      21       32.34       500      610      700      900      950      970     1000      129      960     1100   
                                          VAR    BASINP    GEOM    SYMINP    ZMAT    AOBASIS   BASIS     P2S    ABASIS      S 
                                         1400     1410     1200     1210     1080     1600     1650     1300     1700     1380   
                                           T        V       H0       H01     AOSYM     SMH    MOLCAS    ERIS     OPER     JKOP   
                                         7000   
                                        PAPT AO    

              2       5        0.59       700     1000      520     2100     7000   
                                         GEOM     BASIS   MCVARS     RHF     PAPT   

 PROGRAMS   *        TOTAL       MP3      PAPT    HF-SCF       INT
 CPU TIMES  *         0.97      0.08      0.12      0.07      0.55
 REAL TIME  *         3.98 SEC
 DISK USED  *        45.39 MB
 **********************************************************************************************************************************

 Dump information in style XML to xml output                                                                      

 Orbitals will not be exported.

 **********************************************************************************************************************************

 MP3/cc-pVTZ energy=    -76.324405903247

             MP3            PAPT          HF-SCF
    -76.32440590    -76.32267006    -76.05686623
 **********************************************************************************************************************************
 Molpro calculation terminated
