
 Working directory              : /home/jovyan/scratch/molpro.PKpmrHdDEv/
 Global scratch directory       : /home/jovyan/scratch/molpro.PKpmrHdDEv/
 Wavefunction directory         : /home/jovyan/wfu/
 Main file repository           : /home/jovyan/scratch/molpro.PKpmrHdDEv/

 id        : cardiff

 Nodes                nprocs
 jupyter-c-2efrancisan    1
 GA implementation: MPI file
 GA implementation (serial work in mppx): MPI file

 Using customized tuning parameters: mindgm=1; mindgv=20; mindgc=4; mindgr=1; noblas=0; minvec=7
 default implementation of scratch files=df  


 Variables initialized (1031), CPU time= 0.01 sec
 
 
 
 geometry={
            3
     C          0.00000000      0.00000000     -1.11118191
     N          0.00000000      0.00000000      0.05815587
     H          0.00000000      0.00000000      1.05302603
 }
 basis=cc-pVDZ
 angstrom
 
 
 hf; ccsd(t)
 
 
 
 {put,xml;noorbitals,nobasis}
 Commands initialized (841), CPU time= 0.01 sec, 704 directives.
 Default parameters read. Elapsed time= 0.08 sec

 Checking input...
 Passed
1


                                         ***  PROGRAM SYSTEM MOLPRO  ***
                                       Copyright, TTI GmbH Stuttgart, 2015
                                    Version 2023.1 linked Mon Jun  5 13:27:10 2023


 **********************************************************************************************************************************
 LABEL *                                                                                                                                                                 
  (16 PROC) 64 bit serial version                                                        DATE: 02-Aug-23          TIME: 15:53:01  
 **********************************************************************************************************************************

 SHA1:             9738a14712571edd23541b6d7c4f3a3d766f8287
 **********************************************************************************************************************************

 Memory per process:       805 MW
 Total memory per node:   1074 MW
 Total GA space:           268 MW

 GA preallocation disabled
 GA check enabled

 Geometry recognized as XYZ


 Variable memory set to 805.3 MW

 SETTING BASIS          =    CC-PVDZ


 Recomputing integrals since basis changed


 Using spherical harmonics

 Library entry C      S cc-pVDZ              selected for orbital group  1
 Library entry C      P cc-pVDZ              selected for orbital group  1
 Library entry C      D cc-pVDZ              selected for orbital group  1
 Library entry N      S cc-pVDZ              selected for orbital group  2
 Library entry N      P cc-pVDZ              selected for orbital group  2
 Library entry N      D cc-pVDZ              selected for orbital group  2
 Library entry H      S cc-pVDZ              selected for orbital group  3
 Library entry H      P cc-pVDZ              selected for orbital group  3


 PROGRAM * SEWARD (Integral evaluation for generally contracted gaussian basis sets)     Author: Roland Lindh, 1990

 Geometry written to block  1 of record 700


 Point group  C2v 



 ATOMIC COORDINATES

 NR  ATOM    CHARGE       X              Y              Z

   1  C       6.00    0.000000000    0.000000000   -2.099829485
   2  N       7.00    0.000000000    0.000000000    0.109898667
   3  H       1.00    0.000000000    0.000000000    1.989930799

 Bond lengths in Bohr (Angstrom)

 1-2  2.209728151  2-3  1.880032132
     ( 1.169337780)     ( 0.994870160)

 Bond angles

  1-2-3  180.00000000

 NUCLEAR CHARGE:                   14
 NUMBER OF PRIMITIVE AOS:          61
 NUMBER OF SYMMETRY AOS:           59
 NUMBER OF CONTRACTIONS:           33   (   17A1  +    7B1  +    7B2  +    2A2  )
 NUMBER OF INNER CORE ORBITALS:     0   (    0A1  +    0B1  +    0B2  +    0A2  )
 NUMBER OF OUTER CORE ORBITALS:     2   (    2A1  +    0B1  +    0B2  +    0A2  )
 NUMBER OF VALENCE ORBITALS:        9   (    5A1  +    2B1  +    2B2  +    0A2  )


 NUCLEAR REPULSION ENERGY   24.19728216

 EXTRA SYMMETRY OF AOS IN SYMMETRY 1:   1 1 1 1 1 1 2 1 1 1   1 1 1 2 1 1 1

 Eigenvalues of metric

         1 0.719E-02 0.253E-01 0.326E-01 0.394E-01 0.851E-01 0.134E+00 0.158E+00 0.812E+00
         2 0.121E+00 0.188E+00 0.303E+00 0.520E+00 0.131E+01 0.161E+01 0.295E+01
         3 0.121E+00 0.188E+00 0.303E+00 0.520E+00 0.131E+01 0.161E+01 0.295E+01
         4 0.812E+00 0.119E+01


 Contracted 2-electron integrals neglected if value below      1.0D-11
 AO integral compression algorithm  1   Integral accuracy      1.0D-11

     0.524 MB (compressed) written to integral file ( 76.3%)


 NUMBER OF SORTED TWO-ELECTRON INTEGRALS:      47534.     BUFFER LENGTH:  32768
 NUMBER OF SEGMENTS:   1  SEGMENT LENGTH:      47534      RECORD LENGTH: 524288

 Memory used in sort:       0.60 MW

 SORT1 READ       57809. AND WROTE       41798. INTEGRALS IN      1 RECORDS. CPU TIME:     0.01 SEC, REAL TIME:     0.00 SEC
 SORT2 READ       41798. AND WROTE       47534. INTEGRALS IN      2 RECORDS. CPU TIME:     0.01 SEC, REAL TIME:     0.01 SEC

 FILE SIZES:   FILE 1:    30.6 MBYTE,  FILE 4:     4.3 MBYTE,   TOTAL:     34.8 MBYTE

 OPERATOR DM      FOR CENTER  0  COORDINATES:    0.000000    0.000000    0.000000


 **********************************************************************************************************************************
 DATASETS  * FILE   NREC   LENGTH (MB)   RECORD NAMES
              1      19       28.88       500      610      700      900      950      970     1000      129      960     1100   
                                          VAR    BASINP    GEOM    SYMINP    ZMAT    AOBASIS   BASIS     P2S    ABASIS      S 
                                         1400     1410     1200     1210     1080     1600     1650     1300     1700   
                                           T        V       H0       H01     AOSYM     SMH    MOLCAS    ERIS     OPER   

 PROGRAMS   *        TOTAL       INT
 CPU TIMES  *         0.52      0.39
 REAL TIME  *         1.56 SEC
 DISK USED  *        33.56 MB
 **********************************************************************************************************************************


 Program * Restricted Hartree-Fock

 Orbital guess generated from atomic densities. Full valence occupancy:    7   2   2   0

 Initial occupancy:   5   1   1   0

 NELEC=   14   SYM=1   MS2= 0   THRE=1.0D-08   THRD=3.2D-06   THRG=3.2D-06  HFMA2=F  DIIS_START=2   DIIS_MAX=10   DIIS_INCORE=F

 Level shifts:    0.00 (CLOSED)    0.00 (OPEN)    0.30 (GAP_MIN)

 ITER           ETOT              DE          GRAD        DDIFF     DIIS  NEXP   TIME(IT)  TIME(TOT)  DIAG
   1      -92.84778549     -92.84778549     0.00D+00     0.32D+00     0     0       0.00      0.00    start
   2      -92.86260177      -0.01481628     0.13D-01     0.28D-01     1     0       0.00      0.00    diag
   3      -92.86557299      -0.00297121     0.74D-02     0.14D-01     2     0       0.01      0.01    diag
   4      -92.86597173      -0.00039874     0.21D-02     0.32D-02     3     0       0.00      0.01    diag
   5      -92.86599000      -0.00001827     0.38D-03     0.10D-02     4     0       0.00      0.01    diag
   6      -92.86599140      -0.00000140     0.10D-03     0.32D-03     5     0       0.00      0.01    diag
   7      -92.86599146      -0.00000006     0.24D-04     0.65D-04     6     0       0.00      0.01    diag
   8      -92.86599146      -0.00000000     0.39D-05     0.97D-05     7     0       0.00      0.01    fixocc
   9      -92.86599146      -0.00000000     0.41D-06     0.12D-05     8     0       0.00      0.01    diag
  10      -92.86599146      -0.00000000     0.36D-07     0.99D-07     0     0       0.00      0.01    diag/orth

 Final occupancy:   5   1   1   0

 !RHF STATE 1.1 Energy                -92.865991459741
  RHF One-electron energy            -173.031101242780
  RHF Two-electron energy              55.967827622764
  RHF Kinetic energy                   92.717626495566
  RHF Nuclear energy                   24.197282160275
  RHF Virial quotient                  -1.001600180783

 !RHF STATE 1.1 Dipole moment           0.00000000     0.00000000     1.13290992
 Dipole moment /Debye                   0.00000000     0.00000000     2.87956979

 Orbital energies:

           1.1          2.1          3.1          4.1          5.1          6.1          7.1
    -15.606385   -11.298234    -1.261537    -0.870976    -0.483065     0.175953     0.437094

           1.2          2.2          3.2
     -0.513763     0.195051     0.710125

           1.3          2.3          3.3
     -0.513763     0.195051     0.710125

           1.4          2.4
      1.372545     2.137926


 HOMO      5.1    -0.483065 =     -13.1449eV
 LUMO      6.1     0.175953 =       4.7879eV
 LUMO-HOMO         0.659018 =      17.9328eV

 Orbitals saved in record  2100.2


 **********************************************************************************************************************************
 DATASETS  * FILE   NREC   LENGTH (MB)   RECORD NAMES
              1      19       28.88       500      610      700      900      950      970     1000      129      960     1100   
                                          VAR    BASINP    GEOM    SYMINP    ZMAT    AOBASIS   BASIS     P2S    ABASIS      S 
                                         1400     1410     1200     1210     1080     1600     1650     1300     1700   
                                           T        V       H0       H01     AOSYM     SMH    MOLCAS    ERIS     OPER   

              2       4        0.42       700     1000      520     2100   
                                         GEOM     BASIS   MCVARS     RHF  

 PROGRAMS   *        TOTAL    HF-SCF       INT
 CPU TIMES  *         0.53      0.01      0.39
 REAL TIME  *         1.68 SEC
 DISK USED  *        33.56 MB
 **********************************************************************************************************************************


 PROGRAM * CCSD (Closed-shell coupled cluster)     Authors: C. Hampel, H.-J. Werner, 1991, M. Deegan, P.J. Knowles, 1992


 Convergence thresholds:  THRVAR = 1.00D-08  THRDEN = 1.00D-06

 CCSD(T)     terms to be evaluated (factor= 1.000)


 Number of core orbitals:           2 (   2   0   0   0 )
 Number of closed-shell orbitals:   5 (   3   1   1   0 )
 Number of external orbitals:      26 (  12   6   6   2 )

 Molecular orbitals read from record     2100.2  Type=RHF/CANONICAL  

 Number of N-1 electron functions:               5
 Number of N-2 electron functions:              15
 Number of singly external CSFs:                48
 Number of doubly external CSFs:              2403
 Total number of CSFs:                        2452

 Length of J-op  integral file:               0.00 MB
 Length of K-op  integral file:               0.09 MB
 Length of 3-ext integral record:             0.00 MB

 Memory could be reduced to 0.10 Mwords without degradation in triples

 Integral transformation finished. Total CPU:   0.00 sec, npass=  1  Memory used:   0.08 MW

 Reference energy:                    -92.86599146

 MP2 singlet pair energy:              -0.16838563
 MP2 triplet pair energy:              -0.10322752
 MP2 correlation energy:               -0.27161314
 MP2 total energy:                    -93.13760460

 SCS-MP2 correlation energy:           -0.26629321   (PS=  1.200000  PT=  0.333333)
 SCS-MP2 total energy:                -93.13228467

 ITER.      SQ.NORM     CORR.ENERGY   TOTAL ENERGY   ENERGY CHANGE        DEN1      VAR(S)    VAR(P)  DIIS     TIME  TIME/IT
   1      1.10342650    -0.28410840   -93.15009986    -0.01249525    -0.00231309  0.27D-02  0.23D-02  1  1     0.91     0.01
   2      1.11421186    -0.28550700   -93.15149846    -0.00139860    -0.00895018  0.60D-04  0.41D-03  2  2     0.91     0.01
   3      1.11935257    -0.28586359   -93.15185505    -0.00035659    -0.00222083  0.41D-04  0.24D-04  3  3     0.92     0.01
   4      1.12114071    -0.28579919   -93.15179065     0.00006440    -0.00057217  0.26D-05  0.26D-05  4  4     0.92     0.01
   5      1.12159084    -0.28580711   -93.15179857    -0.00000792    -0.00011092  0.31D-06  0.25D-06  5  5     0.93     0.01
   6      1.12168557    -0.28579944   -93.15179090     0.00000767    -0.00001548  0.39D-07  0.20D-07  6  6     0.94     0.01
   7      1.12170636    -0.28579942   -93.15179088     0.00000002    -0.00000364  0.44D-08  0.40D-08  6  1     0.94     0.01
   8      1.12171163    -0.28579874   -93.15179020     0.00000069     0.00000076  0.45D-09  0.31D-09  6  4     0.95     0.01

 Norm of t1 vector:      0.07615503      S-energy:    -0.00000034      T1 diagnostic:  0.01702878
                                                                       D1 diagnostic:  0.03404095
                                                                       D2 diagnostic:  0.15997434 (external, symmetry=2)

 Doubles amplitudes (print threshold =  0.500E-01):

         I         J         SYM. A    SYM. B    A         B      T(IJ, AB)

         3         3         2         2         1         1     -0.06095087
         3         3         3         3         1         1     -0.06095087
         4         4         2         2         1         1     -0.08209759
         5         5         3         3         1         1     -0.08209759
         5         4         3         2         1         1     -0.05329981


 Total CPU time for triples:      0.01 sec


 RESULTS
 =======

  Reference energy                    -92.865991459741
  CCSD singlet pair energy             -0.196795340264
  CCSD triplet pair energy             -0.089003052864
  CCSD correlation energy              -0.285798736533

  Triples (T) contribution             -0.011398126228
  Total correlation energy             -0.297196862761

  CCSD total energy                   -93.151790196274
  CCSD[T] energy                      -93.164113286708
  CCSD-T energy                       -93.162839048753
 !CCSD(T) total energy                -93.163188322502

 Timing summary (sec):

 STEP                 CPU(USER)    SYS     CPU(TOT)    WALL
 CCSD iterations         0.96      0.02      0.98      0.05
 Triples                 0.01      0.00      0.01      0.02

 Program statistics:

 Available memory in ccsd:               805306263
 Min. memory needed in ccsd:                 12634
 Max. memory used in ccsd:                   13865
 Max. memory used in cckext:                 47333 ( 8 integral passes)



 **********************************************************************************************************************************
 DATASETS  * FILE   NREC   LENGTH (MB)   RECORD NAMES
              1      20       29.03       500      610      700      900      950      970     1000      129      960     1100   
                                          VAR    BASINP    GEOM    SYMINP    ZMAT    AOBASIS   BASIS     P2S    ABASIS      S 
                                         1400     1410     1200     1210     1080     1600     1650     1300     1700     1380   
                                           T        V       H0       H01     AOSYM     SMH    MOLCAS    ERIS     OPER     JKOP   

              2       4        0.42       700     1000      520     2100   
                                         GEOM     BASIS   MCVARS     RHF  

 PROGRAMS   *        TOTAL   CCSD(T)    HF-SCF       INT
 CPU TIMES  *         0.64      0.10      0.01      0.39
 REAL TIME  *         1.84 SEC
 DISK USED  *        33.56 MB
 **********************************************************************************************************************************

 Dump information in style XML to xml output                                                                      

 Orbitals will not be exported.

 **********************************************************************************************************************************

 CCSD(T)/cc-pVDZ energy=    -93.163188322502

         CCSD(T)          HF-SCF
    -93.16318832    -92.86599146
 **********************************************************************************************************************************
 Molpro calculation terminated
