
 Working directory              : /home/jovyan/scratch/molpro.952BgIB9xO/
 Global scratch directory       : /home/jovyan/scratch/molpro.952BgIB9xO/
 Wavefunction directory         : /home/jovyan/wfu/
 Main file repository           : /home/jovyan/scratch/molpro.952BgIB9xO/

 id        : cardiff

 Nodes                nprocs
 jupyter-c-2efrancisan    1
 GA implementation: MPI file
 GA implementation (serial work in mppx): MPI file

 Using customized tuning parameters: mindgm=1; mindgv=20; mindgc=4; mindgr=1; noblas=0; minvec=7
 default implementation of scratch files=df  


 Variables initialized (1031), CPU time= 0.01 sec
 
 
 
 geometry={
 5
    N   -0.11115880832978     -0.02551613494687     -0.01730510413245
    O   -0.58895878482719      0.46555591931502      1.24339838521922
    H   0.90087984737186     -0.04906254294276      0.02793548072260
    H   -0.33038589374312      0.73021745058808     -0.65400731806521
    H   0.15696863952822      0.47750630798653      1.84464755625584
 }
 basis=cc-pVTZ
 angstrom
 
 
 hf; ccsd
 
 
 
 {put,xml;noorbitals,nobasis}
 Commands initialized (841), CPU time= 0.01 sec, 704 directives.
 Default parameters read. Elapsed time= 0.09 sec

 Checking input...
 Passed
1


                                         ***  PROGRAM SYSTEM MOLPRO  ***
                                       Copyright, TTI GmbH Stuttgart, 2015
                                    Version 2023.1 linked Mon Jun  5 13:27:10 2023


 **********************************************************************************************************************************
 LABEL *                                                                                                                                                                 
  (16 PROC) 64 bit serial version                                                        DATE: 04-Aug-23          TIME: 06:52:44  
 **********************************************************************************************************************************

 SHA1:             9738a14712571edd23541b6d7c4f3a3d766f8287
 **********************************************************************************************************************************

 Memory per process:       805 MW
 Total memory per node:   1074 MW
 Total GA space:           268 MW

 GA preallocation disabled
 GA check enabled

 Geometry recognized as XYZ


 Variable memory set to 805.3 MW

 SETTING BASIS          =    CC-PVTZ


 Recomputing integrals since basis changed


 Using spherical harmonics

 Library entry N      S cc-pVTZ              selected for orbital group  1
 Library entry N      P cc-pVTZ              selected for orbital group  1
 Library entry N      D cc-pVTZ              selected for orbital group  1
 Library entry N      F cc-pVTZ              selected for orbital group  1
 Library entry O      S cc-pVTZ              selected for orbital group  2
 Library entry O      P cc-pVTZ              selected for orbital group  2
 Library entry O      D cc-pVTZ              selected for orbital group  2
 Library entry O      F cc-pVTZ              selected for orbital group  2
 Library entry H      S cc-pVTZ              selected for orbital group  3
 Library entry H      P cc-pVTZ              selected for orbital group  3
 Library entry H      D cc-pVTZ              selected for orbital group  3


 PROGRAM * SEWARD (Integral evaluation for generally contracted gaussian basis sets)     Author: Roland Lindh, 1990

 Geometry written to block  1 of record 700


 Point group  C1  



 ATOMIC COORDINATES

 NR  ATOM    CHARGE       X              Y              Z

   1  N       7.00   -0.210059704   -0.048218507   -0.032701907
   2  O       8.00   -1.112970802    0.879773183    2.349682412
   3  H       1.00    1.702416183   -0.092714769    0.052790408
   4  H       1.00   -0.624338855    1.379910993   -1.235894715
   5  H       1.00    0.296627739    0.902356145    3.485878678

 Bond lengths in Bohr (Angstrom)

 1-2  2.711488903  1-3  1.914902836  1-4  1.912813115  2-5  1.810640768
     ( 1.434858135)     ( 1.013322942)     ( 1.012217109)     ( 0.958149832)

 Bond angles

  1-2-5  107.24010633   2-1-3  107.53559750   2-1-4  103.00446012   3-1-4  105.17324127

 NUCLEAR CHARGE:                   18
 NUMBER OF PRIMITIVE AOS:         145
 NUMBER OF SYMMETRY AOS:          132
 NUMBER OF CONTRACTIONS:          102   (  102A   )
 NUMBER OF INNER CORE ORBITALS:     0   (    0A   )
 NUMBER OF OUTER CORE ORBITALS:     2   (    2A   )
 NUMBER OF VALENCE ORBITALS:       11   (   11A   )


 NUCLEAR REPULSION ENERGY   39.40147218

 Eigenvalues of metric

         1 0.140E-02 0.271E-02 0.342E-02 0.416E-02 0.575E-02 0.825E-02 0.865E-02 0.108E-01


 Contracted 2-electron integrals neglected if value below      1.0D-11
 AO integral compression algorithm  1   Integral accuracy      1.0D-11

     69.206 MB (compressed) written to integral file ( 53.2%)


 NUMBER OF SORTED TWO-ELECTRON INTEGRALS:   13799631.     BUFFER LENGTH:  32768
 NUMBER OF SEGMENTS:   1  SEGMENT LENGTH:   13799631      RECORD LENGTH: 524288

 Memory used in sort:      14.36 MW

 SORT1 READ    16309490. AND WROTE    13587710. INTEGRALS IN     39 RECORDS. CPU TIME:     0.14 SEC, REAL TIME:     0.36 SEC
 SORT2 READ    13587710. AND WROTE    13799631. INTEGRALS IN    264 RECORDS. CPU TIME:     0.29 SEC, REAL TIME:     0.34 SEC

 FILE SIZES:   FILE 1:    99.7 MBYTE,  FILE 4:   163.6 MBYTE,   TOTAL:    263.3 MBYTE

 OPERATOR DM      FOR CENTER  0  COORDINATES:    0.000000    0.000000    0.000000


 **********************************************************************************************************************************
 DATASETS  * FILE   NREC   LENGTH (MB)   RECORD NAMES
              1      19       85.97       500      610      700      900      950      970     1000      129      960     1100   
                                          VAR    BASINP    GEOM    SYMINP    ZMAT    AOBASIS   BASIS     P2S    ABASIS      S 
                                         1400     1410     1200     1210     1080     1600     1650     1300     1700   
                                           T        V       H0       H01     AOSYM     SMH    MOLCAS    ERIS     OPER   

 PROGRAMS   *        TOTAL       INT
 CPU TIMES  *         1.81      1.68
 REAL TIME  *         3.32 SEC
 DISK USED  *       251.50 MB
 **********************************************************************************************************************************


 Program * Restricted Hartree-Fock

 Orbital guess generated from atomic densities. Full valence occupancy:   13

 Initial occupancy:   9

 NELEC=   18   SYM=1   MS2= 0   THRE=1.0D-08   THRD=3.2D-06   THRG=3.2D-06  HFMA2=F  DIIS_START=2   DIIS_MAX=10   DIIS_INCORE=F

 Level shifts:    0.00 (CLOSED)    0.00 (OPEN)    0.30 (GAP_MIN)

 ITER           ETOT              DE          GRAD        DDIFF     DIIS  NEXP   TIME(IT)  TIME(TOT)  DIAG
   1     -130.99522439    -130.99522439     0.00D+00     0.79D-01     0     0       0.13      0.26    start
   2     -131.02580246      -0.03057807     0.70D-02     0.87D-02     1     0       0.13      0.39    diag
   3     -131.03032165      -0.00451920     0.30D-02     0.26D-02     2     0       0.13      0.52    diag
   4     -131.03081083      -0.00048918     0.85D-03     0.79D-03     3     0       0.13      0.65    diag
   5     -131.03085302      -0.00004219     0.19D-03     0.23D-03     4     0       0.14      0.79    diag
   6     -131.03085634      -0.00000332     0.44D-04     0.62D-04     5     0       0.13      0.92    diag
   7     -131.03085687      -0.00000053     0.18D-04     0.25D-04     6     0       0.13      1.05    diag
   8     -131.03085696      -0.00000009     0.55D-05     0.12D-04     7     0       0.13      1.18    fixocc
   9     -131.03085697      -0.00000001     0.16D-05     0.40D-05     8     0       0.13      1.31    diag
  10     -131.03085697      -0.00000000     0.50D-06     0.13D-05     9     0       0.14      1.45    diag/orth
  11     -131.03085697      -0.00000000     0.14D-06     0.19D-06     0     0       0.13      1.58    diag

 Final occupancy:   9

 !RHF STATE 1.1 Energy               -131.030856967960
  RHF One-electron energy            -257.773462971952
  RHF Two-electron energy              87.341133827304
  RHF Kinetic energy                  130.889010944730
  RHF Nuclear energy                   39.401472176688
  RHF Virial quotient                  -1.001083712240

 !RHF STATE 1.1 Dipole moment           1.02292297     0.40959388    -0.05472575
 Dipole moment /Debye                   2.60001085     1.04108379    -0.13909899

 Orbital energies:

           1.1          2.1          3.1          4.1          5.1          6.1          7.1          8.1          9.1         10.1
    -20.580194   -15.603132    -1.394080    -1.081140    -0.729199    -0.653008    -0.562852    -0.539077    -0.402918     0.130168

          11.1
      0.168355


 HOMO      9.1    -0.402918 =     -10.9640eV
 LUMO     10.1     0.130168 =       3.5420eV
 LUMO-HOMO         0.533086 =      14.5060eV

 Orbitals saved in record  2100.2


 **********************************************************************************************************************************
 DATASETS  * FILE   NREC   LENGTH (MB)   RECORD NAMES
              1      19       85.97       500      610      700      900      950      970     1000      129      960     1100   
                                          VAR    BASINP    GEOM    SYMINP    ZMAT    AOBASIS   BASIS     P2S    ABASIS      S 
                                         1400     1410     1200     1210     1080     1600     1650     1300     1700   
                                           T        V       H0       H01     AOSYM     SMH    MOLCAS    ERIS     OPER   

              2       4        0.62       700     1000      520     2100   
                                         GEOM     BASIS   MCVARS     RHF  

 PROGRAMS   *        TOTAL    HF-SCF       INT
 CPU TIMES  *         3.39      1.58      1.68
 REAL TIME  *         5.13 SEC
 DISK USED  *       251.50 MB
 **********************************************************************************************************************************


 PROGRAM * CCSD (Closed-shell coupled cluster)     Authors: C. Hampel, H.-J. Werner, 1991, M. Deegan, P.J. Knowles, 1992


 Convergence thresholds:  THRVAR = 1.00D-08  THRDEN = 1.00D-06

 Number of core orbitals:           2 (   2 )
 Number of closed-shell orbitals:   7 (   7 )
 Number of external orbitals:      93 (  93 )

 Molecular orbitals read from record     2100.2  Type=RHF/CANONICAL  

 Number of N-1 electron functions:               7
 Number of N-2 electron functions:              28
 Number of singly external CSFs:               651
 Number of doubly external CSFs:            212226
 Total number of CSFs:                      212878

 Length of J-op  integral file:               0.00 MB
 Length of K-op  integral file:               0.78 MB
 Length of 3-ext integral record:             0.00 MB

 Integral transformation finished. Total CPU:   0.47 sec, npass=  1  Memory used:   5.00 MW

 Reference energy:                   -131.03085697

 MP2 singlet pair energy:              -0.29722901
 MP2 triplet pair energy:              -0.16853162
 MP2 correlation energy:               -0.46576063
 MP2 total energy:                   -131.49661760

 SCS-MP2 correlation energy:           -0.46153893   (PS=  1.200000  PT=  0.333333)
 SCS-MP2 total energy:               -131.49239590

 ITER.      SQ.NORM     CORR.ENERGY   TOTAL ENERGY   ENERGY CHANGE        DEN1      VAR(S)    VAR(P)  DIIS     TIME  TIME/IT
   1      1.12038918    -0.47771932  -131.50857629    -0.01195869    -0.00090920  0.12D-02  0.19D-02  1  1     4.69     0.60
   2      1.12807017    -0.47871355  -131.50957052    -0.00099423    -0.00976492  0.26D-04  0.24D-03  2  2     5.29     0.62
   3      1.13088831    -0.47882118  -131.50967815    -0.00010763    -0.00191915  0.97D-05  0.13D-04  3  3     5.89     0.62
   4      1.13172820    -0.47884594  -131.50970291    -0.00002476    -0.00042072  0.14D-05  0.12D-05  4  4     6.50     0.63
   5      1.13190893    -0.47884916  -131.50970613    -0.00000322    -0.00006052  0.51D-06  0.12D-06  5  5     7.10     0.63
   6      1.13196998    -0.47884650  -131.50970346     0.00000267    -0.00001133  0.10D-06  0.20D-07  6  6     7.69     0.63
   7      1.13198823    -0.47884684  -131.50970381    -0.00000035    -0.00000131  0.18D-07  0.44D-08  6  1     8.29     0.63
   8      1.13199573    -0.47884680  -131.50970377     0.00000004     0.00000086  0.25D-08  0.70D-09  6  2     8.90     0.63

 Norm of t1 vector:      0.04580607      S-energy:    -0.00000050      T1 diagnostic:  0.00865653
                                                                       D1 diagnostic:  0.01941997
                                                                       D2 diagnostic:  0.15376814 (internal)


 RESULTS
 =======

  Reference energy                   -131.030856967960
  CCSD singlet pair energy             -0.328819898963
  CCSD triplet pair energy             -0.150026399659
  CCSD correlation energy              -0.478846798058

 !CCSD total energy                  -131.509703766018

 Timing summary (sec):

 STEP                 CPU(USER)    SYS     CPU(TOT)    WALL
 Transformation          0.49      0.07      0.56      0.67
 CCSD iterations         8.43      0.24      8.67      5.10

 Program statistics:

 Available memory in ccsd:               805306163
 Min. memory needed in ccsd:                697237
 Max. memory used in ccsd:                  867232
 Max. memory used in cckext:                673421 ( 8 integral passes)



 **********************************************************************************************************************************
 DATASETS  * FILE   NREC   LENGTH (MB)   RECORD NAMES
              1      20      111.19       500      610      700      900      950      970     1000      129      960     1100   
                                          VAR    BASINP    GEOM    SYMINP    ZMAT    AOBASIS   BASIS     P2S    ABASIS      S 
                                         1400     1410     1200     1210     1080     1600     1650     1300     1700     1380   
                                           T        V       H0       H01     AOSYM     SMH    MOLCAS    ERIS     OPER     JKOP   

              2       4        0.62       700     1000      520     2100   
                                         GEOM     BASIS   MCVARS     RHF  

 PROGRAMS   *        TOTAL      CCSD    HF-SCF       INT
 CPU TIMES  *         8.72      5.32      1.58      1.68
 REAL TIME  *        10.94 SEC
 DISK USED  *       251.50 MB
 **********************************************************************************************************************************

 Dump information in style XML to xml output                                                                      

 Orbitals will not be exported.

 **********************************************************************************************************************************

 CCSD/cc-pVTZ energy=   -131.509703766018

            CCSD          HF-SCF
   -131.50970377   -131.03085697
 **********************************************************************************************************************************
 Molpro calculation terminated
