
 Working directory              : /home/jovyan/scratch/molpro.oGGd36EoME/
 Global scratch directory       : /home/jovyan/scratch/molpro.oGGd36EoME/
 Wavefunction directory         : /home/jovyan/wfu/
 Main file repository           : /home/jovyan/scratch/molpro.oGGd36EoME/

 id        : cardiff

 Nodes                nprocs
 jupyter-c-2efrancisan    1
 GA implementation: MPI file
 GA implementation (serial work in mppx): MPI file

 Using customized tuning parameters: mindgm=1; mindgv=20; mindgc=4; mindgr=1; noblas=0; minvec=7
 default implementation of scratch files=df  


 Variables initialized (1031), CPU time= 0.01 sec
 
 
 
 geometry={
 10
  C     1.1718442    1.4111858    0.0000000
  C     0.0357523    0.7227548    0.0000000
  C    -0.0357523   -0.7227548    0.0000000
  C    -1.1718442   -1.4111858    0.0000000
  H    -0.9095134    1.2507964    0.0000000
  H     1.1817440    2.4889070    0.0000000
  H     2.1293121    0.9111032    0.0000000
  H     0.9095134   -1.2507964    0.0000000
  H    -1.1817440   -2.4889070    0.0000000
  H    -2.1293121   -0.9111032    0.0000000
 }
 basis=cc-pVTZ
 angstrom
 
 
 hf; mp4
 
 
 
 {put,xml;noorbitals,nobasis}
 Commands initialized (841), CPU time= 0.01 sec, 704 directives.
 Default parameters read. Elapsed time= 0.08 sec

 Checking input...
 Passed
1


                                         ***  PROGRAM SYSTEM MOLPRO  ***
                                       Copyright, TTI GmbH Stuttgart, 2015
                                    Version 2023.1 linked Mon Jun  5 13:27:10 2023


 **********************************************************************************************************************************
 LABEL *                                                                                                                                                                 
  (16 PROC) 64 bit serial version                                                        DATE: 03-Aug-23          TIME: 14:07:21  
 **********************************************************************************************************************************

 SHA1:             9738a14712571edd23541b6d7c4f3a3d766f8287
 **********************************************************************************************************************************

 Memory per process:       805 MW
 Total memory per node:   1074 MW
 Total GA space:           268 MW

 GA preallocation disabled
 GA check enabled

 Geometry recognized as XYZ


 Variable memory set to 805.3 MW

 SETTING BASIS          =    CC-PVTZ


 Recomputing integrals since basis changed


 Using spherical harmonics

 Library entry C      S cc-pVTZ              selected for orbital group  1
 Library entry C      P cc-pVTZ              selected for orbital group  1
 Library entry C      D cc-pVTZ              selected for orbital group  1
 Library entry C      F cc-pVTZ              selected for orbital group  1
 Library entry H      S cc-pVTZ              selected for orbital group  2
 Library entry H      P cc-pVTZ              selected for orbital group  2
 Library entry H      D cc-pVTZ              selected for orbital group  2


 PROGRAM * SEWARD (Integral evaluation for generally contracted gaussian basis sets)     Author: Roland Lindh, 1990

 Geometry written to block  1 of record 700


 Point group  C2h 



 ATOMIC COORDINATES

 NR  ATOM    CHARGE       X              Y              Z

   1  C       6.00    2.214464599    2.666754673    0.000000000
   2  C       6.00   -2.214464599   -2.666754673    0.000000000
   3  C       6.00    0.067562055    1.365808627    0.000000000
   4  C       6.00   -0.067562055   -1.365808627    0.000000000
   5  H       1.00   -1.718731233    2.363662634    0.000000000
   6  H       1.00    1.718731233   -2.363662634    0.000000000
   7  H       1.00    2.233172509    4.703352580    0.000000000
   8  H       1.00   -2.233172509   -4.703352580    0.000000000
   9  H       1.00    4.023816703    1.721735519    0.000000000
  10  H       1.00   -4.023816703   -1.721735519    0.000000000

 Bond lengths in Bohr (Angstrom)

 1-3  2.510308974  1-7  2.036683829  1-9  2.041278089  2-4  2.510308974  2-8  2.036683829
     ( 1.328398301)     ( 1.077766668)     ( 1.080197846)     ( 1.328398301)     ( 1.077766668)

  2-10  2.041278089   3- 4  2.734957285   3- 5  2.046107604   4- 6  2.046107604
       ( 1.080197846)       ( 1.447277068)       ( 1.082753515)       ( 1.082753515)

 Bond angles

  1-3-4  124.04628726   1-3-5  119.59716487   2-4-3  124.04628726   2-4-6  119.59716487

  3-1-7  121.74065849   3-1-9  121.20770824   3-4-6  116.35654787   4-2-8  121.74065849

  4- 2-10  121.20770824   4- 3- 5  116.35654787   7- 1- 9  117.05163327   8- 2-10  117.05163327

 NUCLEAR CHARGE:                   30
 NUMBER OF PRIMITIVE AOS:         290
 NUMBER OF SYMMETRY AOS:          264
 NUMBER OF CONTRACTIONS:          204   (   70Ag  +   32Au  +   70Bu  +   32Bg  )
 NUMBER OF INNER CORE ORBITALS:     0   (    0Ag  +    0Au  +    0Bu  +    0Bg  )
 NUMBER OF OUTER CORE ORBITALS:     4   (    2Ag  +    0Au  +    2Bu  +    0Bg  )
 NUMBER OF VALENCE ORBITALS:       22   (    9Ag  +    2Au  +    9Bu  +    2Bg  )


 NUCLEAR REPULSION ENERGY  104.43406737

 Eigenvalues of metric

         1 0.479E-03 0.849E-03 0.129E-02 0.136E-02 0.159E-02 0.241E-02 0.590E-02 0.600E-02
         2 0.171E-01 0.334E-01 0.469E-01 0.710E-01 0.912E-01 0.106E+00 0.153E+00 0.207E+00
         3 0.317E-03 0.730E-03 0.101E-02 0.122E-02 0.138E-02 0.168E-02 0.222E-02 0.420E-02
         4 0.191E-01 0.258E-01 0.428E-01 0.475E-01 0.627E-01 0.103E+00 0.121E+00 0.166E+00


 Contracted 2-electron integrals neglected if value below      1.0D-11
 AO integral compression algorithm  1   Integral accuracy      1.0D-11

     288.358 MB (compressed) written to integral file ( 53.5%)


 NUMBER OF SORTED TWO-ELECTRON INTEGRALS:   56616809.     BUFFER LENGTH:  32768
 NUMBER OF SEGMENTS:   4  SEGMENT LENGTH:   15999422      RECORD LENGTH: 524288

 Memory used in sort:      16.56 MW

 SORT1 READ    67458408. AND WROTE    56589821. INTEGRALS IN    163 RECORDS. CPU TIME:     1.62 SEC, REAL TIME:     2.13 SEC
 SORT2 READ    56589821. AND WROTE    56616809. INTEGRALS IN   1100 RECORDS. CPU TIME:     1.41 SEC, REAL TIME:     1.71 SEC

 FILE SIZES:   FILE 1:   319.5 MBYTE,  FILE 4:   683.7 MBYTE,   TOTAL:   1003.2 MBYTE

 OPERATOR DM      FOR CENTER  0  COORDINATES:    0.000000    0.000000    0.000000


 **********************************************************************************************************************************
 DATASETS  * FILE   NREC   LENGTH (MB)   RECORD NAMES
              1      19      265.49       500      610      700      900      950      970     1000      129      960     1100   
                                          VAR    BASINP    GEOM    SYMINP    ZMAT    AOBASIS   BASIS     P2S    ABASIS      S 
                                         1400     1410     1200     1210     1080     1600     1650     1300     1700   
                                           T        V       H0       H01     AOSYM     SMH    MOLCAS    ERIS     OPER   

 PROGRAMS   *        TOTAL       INT
 CPU TIMES  *        13.24     13.11
 REAL TIME  *        15.51 SEC
 DISK USED  *       957.26 MB
 **********************************************************************************************************************************


 Program * Restricted Hartree-Fock

 Orbital guess generated from atomic densities. Full valence occupancy:   11   2  11   2

 Initial occupancy:   7   1   6   1

 NELEC=   30   SYM=1   MS2= 0   THRE=1.0D-08   THRD=3.2D-06   THRG=3.2D-06  HFMA2=F  DIIS_START=2   DIIS_MAX=10   DIIS_INCORE=F

 Level shifts:    0.00 (CLOSED)    0.00 (OPEN)    0.30 (GAP_MIN)

 ITER           ETOT              DE          GRAD        DDIFF     DIIS  NEXP   TIME(IT)  TIME(TOT)  DIAG
   1     -154.93245453    -154.93245453     0.00D+00     0.97D-01     0     0       0.26      0.50    start
   2     -154.97346838      -0.04101385     0.57D-02     0.87D-02     1     0       0.24      0.74    diag
   3     -154.97763015      -0.00416177     0.19D-02     0.24D-02     2     0       0.26      1.00    diag
   4     -154.97823924      -0.00060909     0.64D-03     0.10D-02     3     0       0.25      1.25    diag
   5     -154.97826885      -0.00002960     0.17D-03     0.22D-03     4     0       0.26      1.51    diag
   6     -154.97827146      -0.00000261     0.37D-04     0.82D-04     5     0       0.25      1.76    diag
   7     -154.97827162      -0.00000016     0.79D-05     0.19D-04     6     0       0.25      2.01    diag
   8     -154.97827164      -0.00000001     0.22D-05     0.49D-05     7     0       0.25      2.26    fixocc
   9     -154.97827164      -0.00000000     0.51D-06     0.11D-05     8     0       0.26      2.52    diag
  10     -154.97827164      -0.00000000     0.12D-06     0.19D-06     0     0       0.26      2.78    diag/orth

 Final occupancy:   7   1   6   1

 !RHF STATE 1.1 Energy               -154.978271637258
  RHF One-electron energy            -414.317268457124
  RHF Two-electron energy             154.904929445928
  RHF Kinetic energy                  154.862717084715
  RHF Nuclear energy                  104.434067373938
  RHF Virial quotient                  -1.000746174126

 !RHF STATE 1.1 Dipole moment           0.00000000     0.00000000     0.00000000
 Dipole moment /Debye                   0.00000000     0.00000000     0.00000000

 Orbital energies:

           1.1          2.1          3.1          4.1          5.1          6.1          7.1          8.1          9.1
    -11.235252   -11.225165    -1.095517    -0.827661    -0.637049    -0.559348    -0.493511     0.159051     0.214291

           1.2          2.2          3.2
     -0.446896     0.113150     0.431665

           1.3          2.3          3.3          4.3          5.3          6.3          7.3          8.3
    -11.234382   -11.225157    -1.002767    -0.755442    -0.646689    -0.544100     0.164138     0.171782

           1.4          2.4          3.4
     -0.324771     0.215962     0.486125


 HOMO      1.4    -0.324771 =      -8.8375eV
 LUMO      2.2     0.113150 =       3.0790eV
 LUMO-HOMO         0.437921 =      11.9164eV

 Orbitals saved in record  2100.2


 **********************************************************************************************************************************
 DATASETS  * FILE   NREC   LENGTH (MB)   RECORD NAMES
              1      19      265.49       500      610      700      900      950      970     1000      129      960     1100   
                                          VAR    BASINP    GEOM    SYMINP    ZMAT    AOBASIS   BASIS     P2S    ABASIS      S 
                                         1400     1410     1200     1210     1080     1600     1650     1300     1700   
                                           T        V       H0       H01     AOSYM     SMH    MOLCAS    ERIS     OPER   

              2       4        0.74       700     1000      520     2100   
                                         GEOM     BASIS   MCVARS     RHF  

 PROGRAMS   *        TOTAL    HF-SCF       INT
 CPU TIMES  *        16.02      2.78     13.11
 REAL TIME  *        18.83 SEC
 DISK USED  *       957.26 MB
 **********************************************************************************************************************************


 PROGRAM * MP4 (Closed-shell)     Authors: C. Hampel, H.-J. Werner, 1991, M. Deegan, P.J. Knowles, 1992


 Convergence thresholds:  THRVAR = 1.00D-08  THRDEN = 1.00D-06

 MP4(T)     terms to be evaluated (factor= 0.000)


 Number of core orbitals:           4 (   2   0   2   0 )
 Number of closed-shell orbitals:  11 (   5   1   4   1 )
 Number of external orbitals:     189 (  63  31  64  31 )

 Molecular orbitals read from record     2100.2  Type=RHF/CANONICAL  

 Number of N-1 electron functions:              11
 Number of N-2 electron functions:              66
 Number of singly external CSFs:               633
 Number of doubly external CSFs:            567198
 Total number of CSFs:                      567832

 Length of J-op  integral file:               0.00 MB
 Length of K-op  integral file:               0.88 MB

 Memory could be reduced to 23.86 Mwords without degradation in triples

 Integral transformation finished. Total CPU:   1.70 sec, npass=  1  Memory used:   5.62 MW

 Reference energy:                   -154.97827164

                        CORR.ENERGY   TOTAL ENERGY   ENERGY CHANGE
 MP2:                   -0.64927853  -155.62755017    -0.64927853

 SCS-MP2 correlation energy:           -0.65143242   (PS=  1.200000  PT=  0.333333)
 SCS-MP2 total energy:               -155.62970406

 MP3(D):                -0.68293065  -155.66120229    -0.03365212
 MP4(DQ):               -0.67984517  -155.65811680     0.00308549
 MP4(SDQ):              -0.68521690  -155.66348854    -0.00537173

 Norm of t1 vector:      0.06027928      S-energy:    -0.00537173      T1 diagnostic:  0.00908744


 Total CPU time for triples:     27.75 sec


 RESULTS
 =======

  Reference energy                   -154.978271637257
  MP4(SDQ) singlet pair energy         -0.472498564420
  MP4(SDQ) triplet pair energy         -0.207346602226
  MP4(SDQ) correlation energy          -0.685216900040

  Triples contribution                 -0.031899872423
  Total correlation energy             -0.717116772463

  MP4(SDQ) total energy              -155.663488537297
 !MP4(SDTQ) total energy             -155.695388409720

 Timing summary (sec):

 STEP                 CPU(USER)    SYS     CPU(TOT)    WALL
 Transformation          1.73      0.22      1.95      2.21
 CCSD iterations        18.46      0.11     18.57      2.25
 Triples                27.75      1.52     29.27     29.81

 Program statistics:

 Available memory in ccsd:               805305877
 Min. memory needed in ccsd:               1544545
 Max. memory used in ccsd:                 2041713
 Max. memory used in cckext:               1901509 ( 1 integral passes)



 **********************************************************************************************************************************
 DATASETS  * FILE   NREC   LENGTH (MB)   RECORD NAMES
              1      20      347.17       500      610      700      900      950      970     1000      129      960     1100   
                                          VAR    BASINP    GEOM    SYMINP    ZMAT    AOBASIS   BASIS     P2S    ABASIS      S 
                                         1400     1410     1200     1210     1080     1600     1650     1300     1700     1380   
                                           T        V       H0       H01     AOSYM     SMH    MOLCAS    ERIS     OPER     JKOP   

              2       4        0.74       700     1000      520     2100   
                                         GEOM     BASIS   MCVARS     RHF  

 PROGRAMS   *        TOTAL       MP4    HF-SCF       INT
 CPU TIMES  *        47.66     31.64      2.78     13.11
 REAL TIME  *        53.15 SEC
 DISK USED  *       957.26 MB
 **********************************************************************************************************************************

 Dump information in style XML to xml output                                                                      

 Orbitals will not be exported.

 **********************************************************************************************************************************

 MP4/cc-pVTZ energy=   -155.695388409720

             MP4          HF-SCF
   -155.69538841   -154.97827164
 **********************************************************************************************************************************
 Molpro calculation terminated
