
 Working directory              : /home/jovyan/scratch/molpro.SARBA7tAWZ/
 Global scratch directory       : /home/jovyan/scratch/molpro.SARBA7tAWZ/
 Wavefunction directory         : /home/jovyan/wfu/
 Main file repository           : /home/jovyan/scratch/molpro.SARBA7tAWZ/

 id        : cardiff

 Nodes                nprocs
 jupyter-c-2efrancisan    1
 GA implementation: MPI file
 GA implementation (serial work in mppx): MPI file

 Using customized tuning parameters: mindgm=1; mindgv=20; mindgc=4; mindgr=1; noblas=0; minvec=7
 default implementation of scratch files=df  


 Variables initialized (1031), CPU time= 0.01 sec
 
 
 
 geometry={
 9
  3H2O (cyc) (Full point group C1)
  O 1.452268 -0.709273 -0.085209
  H 0.563883 -1.109426 -0.043402
  O -1.348866 -0.891503 -0.094039
  H -1.220857 0.073636 -0.023719
  O -0.102608 1.607130 0.110508
  H -0.006681 2.240437 -0.606048
  H 1.979703 -1.145727 0.588961
  H -1.996402 -1.127971 0.575189
  H 0.674002 1.018221 0.058931
 }
 basis=cc-pVTZ
 angstrom
 
 
 hf; papt;mp2
 
 
 
 {put,xml;noorbitals,nobasis}
 Commands initialized (841), CPU time= 0.01 sec, 704 directives.
 Default parameters read. Elapsed time= 0.08 sec

 Checking input...
 Passed
1


                                         ***  PROGRAM SYSTEM MOLPRO  ***
                                       Copyright, TTI GmbH Stuttgart, 2015
                                    Version 2023.1 linked Mon Jun  5 13:27:10 2023


 **********************************************************************************************************************************
 LABEL *                                                                                                                                                                 
  (16 PROC) 64 bit serial version                                                        DATE: 03-Aug-23          TIME: 13:09:32  
 **********************************************************************************************************************************

 SHA1:             9738a14712571edd23541b6d7c4f3a3d766f8287
 **********************************************************************************************************************************

 Memory per process:       805 MW
 Total memory per node:   1074 MW
 Total GA space:           268 MW

 GA preallocation disabled
 GA check enabled

 Geometry recognized as XYZ


 Variable memory set to 805.3 MW

 SETTING BASIS          =    CC-PVTZ


 Recomputing integrals since basis changed


 Using spherical harmonics

 Library entry O      S cc-pVTZ              selected for orbital group  1
 Library entry O      P cc-pVTZ              selected for orbital group  1
 Library entry O      D cc-pVTZ              selected for orbital group  1
 Library entry O      F cc-pVTZ              selected for orbital group  1
 Library entry H      S cc-pVTZ              selected for orbital group  2
 Library entry H      P cc-pVTZ              selected for orbital group  2
 Library entry H      D cc-pVTZ              selected for orbital group  2


 PROGRAM * SEWARD (Integral evaluation for generally contracted gaussian basis sets)     Author: Roland Lindh, 1990

 Geometry written to block  1 of record 700


 Point group  C1  



 ATOMIC COORDINATES

 NR  ATOM    CHARGE       X              Y              Z

   1  O       8.00    2.744388780   -1.340331718   -0.161021673
   2  H       1.00    1.065584436   -2.096511296   -0.082017893
   3  O       8.00   -2.548987319   -1.684696509   -0.177707955
   4  H       1.00   -2.307085367    0.139151873   -0.044822414
   5  O       8.00   -0.193901018    3.037035547    0.208829855
   6  H       1.00   -0.012625260    4.233812329   -1.145264738
   7  H       1.00    3.741096478   -2.165110244    1.112974988
   8  H       1.00   -3.772653015   -2.131556267    1.086949680
   9  H       1.00    1.273679187    1.924158824    0.111363450

 Bond lengths in Bohr (Angstrom)

 1-2  1.842941446  1-7  1.815696381  3-4  1.844613250  3-8  1.815599160  5-6  1.816234493
     ( 0.975242614)     ( 0.960825147)     ( 0.976127295)     ( 0.960773700)     ( 0.961109904)

 5-9  1.844393114
     ( 0.976010804)

 Bond angles

  2-1-7  106.47442123   4-3-8  106.35316084   6-5-9  106.18701806

 NUCLEAR CHARGE:                   30
 NUMBER OF PRIMITIVE AOS:         243
 NUMBER OF SYMMETRY AOS:          222
 NUMBER OF CONTRACTIONS:          174   (  174A   )
 NUMBER OF INNER CORE ORBITALS:     0   (    0A   )
 NUMBER OF OUTER CORE ORBITALS:     3   (    3A   )
 NUMBER OF VALENCE ORBITALS:       18   (   18A   )


 NUCLEAR REPULSION ENERGY   84.35149440


 Eigenvalues of metric

         1 0.194E-02 0.198E-02 0.234E-02 0.411E-02 0.427E-02 0.469E-02 0.508E-02 0.555E-02


 Contracted 2-electron integrals neglected if value below      1.0D-11
 AO integral compression algorithm  1   Integral accuracy      1.0D-11

     368.837 MB (compressed) written to integral file ( 36.5%)


 NUMBER OF SORTED TWO-ELECTRON INTEGRALS:  115907925.     BUFFER LENGTH:  32768
 NUMBER OF SEGMENTS:   8  SEGMENT LENGTH:   15999503      RECORD LENGTH: 524288

 Memory used in sort:      16.56 MW

 SORT1 READ   126457133. AND WROTE    92930751. INTEGRALS IN    269 RECORDS. CPU TIME:     1.47 SEC, REAL TIME:     2.25 SEC
 SORT2 READ    92930751. AND WROTE   115907925. INTEGRALS IN   1407 RECORDS. CPU TIME:     1.90 SEC, REAL TIME:     2.34 SEC

 FILE SIZES:   FILE 1:   400.1 MBYTE,  FILE 4:  1128.3 MBYTE,   TOTAL:   1528.4 MBYTE

 OPERATOR DM      FOR CENTER  0  COORDINATES:    0.000000    0.000000    0.000000


 **********************************************************************************************************************************
 DATASETS  * FILE   NREC   LENGTH (MB)   RECORD NAMES
              1      19      337.36       500      610      700      900      950      970     1000      129      960     1100   
                                          VAR    BASINP    GEOM    SYMINP    ZMAT    AOBASIS   BASIS     P2S    ABASIS      S 
                                         1400     1410     1200     1210     1080     1600     1650     1300     1700   
                                           T        V       H0       H01     AOSYM     SMH    MOLCAS    ERIS     OPER   

 PROGRAMS   *        TOTAL       INT
 CPU TIMES  *        10.13      9.99
 REAL TIME  *        13.01 SEC
 DISK USED  *         1.42 GB
 **********************************************************************************************************************************


 Program * Restricted Hartree-Fock

 Orbital guess generated from atomic densities. Full valence occupancy:   21

 Initial occupancy:  15

 NELEC=   30   SYM=1   MS2= 0   THRE=1.0D-08   THRD=3.2D-06   THRG=3.2D-06  HFMA2=F  DIIS_START=2   DIIS_MAX=10   DIIS_INCORE=F

 Level shifts:    0.00 (CLOSED)    0.00 (OPEN)    0.30 (GAP_MIN)

 ITER           ETOT              DE          GRAD        DDIFF     DIIS  NEXP   TIME(IT)  TIME(TOT)  DIAG
   1     -228.09810634    -228.09810634     0.00D+00     0.60D-01     0     0       1.33      2.63    start
   2     -228.16799796      -0.06989162     0.70D-02     0.98D-02     1     0       1.32      3.95    diag
   3     -228.18958067      -0.02158270     0.39D-02     0.31D-02     2     0       1.33      5.28    diag
   4     -228.19014880      -0.00056813     0.44D-03     0.55D-03     3     0       1.34      6.62    diag
   5     -228.19019517      -0.00004638     0.10D-03     0.15D-03     4     0       1.34      7.96    diag
   6     -228.19019853      -0.00000336     0.24D-04     0.39D-04     5     0       1.33      9.29    diag
   7     -228.19019869      -0.00000016     0.60D-05     0.91D-05     6     0       1.33     10.62    diag
   8     -228.19019871      -0.00000002     0.27D-05     0.33D-05     7     0       1.34     11.96    fixocc
   9     -228.19019871      -0.00000000     0.46D-06     0.72D-06     8     0       1.34     13.30    diag
  10     -228.19019871      -0.00000000     0.96D-07     0.11D-06     0     0       1.36     14.66    diag/orth

 Final occupancy:  15

 !RHF STATE 1.1 Energy               -228.190198709376
  RHF One-electron energy            -482.931942042886
  RHF Two-electron energy             170.390248931445
  RHF Kinetic energy                  227.936449580771
  RHF Nuclear energy                   84.351494402065
  RHF Virial quotient                  -1.001113245069

 !RHF STATE 1.1 Dipole moment           0.00752794    -0.04284231     0.46340322
 Dipole moment /Debye                   0.01913411    -0.10889428     1.17785350

 Orbital energies:

           1.1          2.1          3.1          4.1          5.1          6.1          7.1          8.1          9.1         10.1
    -20.555160   -20.553493   -20.552451    -1.354945    -1.336580    -1.334866    -0.735780    -0.703862    -0.701810    -0.593036

          11.1         12.1         13.1         14.1         15.1         16.1         17.1
     -0.587246    -0.557457    -0.510028    -0.501584    -0.497417     0.134617     0.172759


 HOMO     15.1    -0.497417 =     -13.5354eV
 LUMO     16.1     0.134617 =       3.6631eV
 LUMO-HOMO         0.632034 =      17.1985eV

 Orbitals saved in record  2100.2


 **********************************************************************************************************************************
 DATASETS  * FILE   NREC   LENGTH (MB)   RECORD NAMES
              1      19      337.36       500      610      700      900      950      970     1000      129      960     1100   
                                          VAR    BASINP    GEOM    SYMINP    ZMAT    AOBASIS   BASIS     P2S    ABASIS      S 
                                         1400     1410     1200     1210     1080     1600     1650     1300     1700   
                                           T        V       H0       H01     AOSYM     SMH    MOLCAS    ERIS     OPER   

              2       4        1.00       700     1000      520     2100   
                                         GEOM     BASIS   MCVARS     RHF  

 PROGRAMS   *        TOTAL    HF-SCF       INT
 CPU TIMES  *        24.80     14.67      9.99
 REAL TIME  *        29.50 SEC
 DISK USED  *         1.42 GB
 **********************************************************************************************************************************


 PROGRAM * PAPT (Closed-shell)     Authors: C. Hampel, H.-J. Werner, 1991, P.J. Knowles, 2021


 Convergence thresholds:  THRVAR = 1.00D-08  THRDEN = 1.00D-06

 Number of core orbitals:           3 (   3 )
 Number of closed-shell orbitals:  12 (  12 )
 Number of external orbitals:     159 ( 159 )

 Molecular orbitals read from record     2100.2  Type=RHF/CANONICAL  

 Number of N-1 electron functions:              12
 Number of N-2 electron functions:              78
 Number of singly external CSFs:              1908
 Number of doubly external CSFs:           1821186
 Total number of CSFs:                     1823095

 Length of J-op  integral file:               0.00 MB
 Length of K-op  integral file:               2.14 MB

 Integral transformation finished. Total CPU:   2.70 sec, npass=  1  Memory used:   4.58 MW

 Reference energy:                   -228.19019871

                        CORR.ENERGY   TOTAL ENERGY   ENERGY CHANGE
 MP2:                   -0.79636233  -228.98656104    -0.79636233

 SCS-MP2 correlation energy:           -0.78540688   (PS=  1.200000  PT=  0.333333)
 SCS-MP2 total energy:               -228.97560559
 Iteration:   1     0.2121D+00
 Iteration:   2     0.2130D+00
 Iteration:   3     0.7612D-01
 Iteration:   4     0.2397D-01
 Iteration:   5     0.1120D+00
 Iteration:   6     0.6102D-02
 Iteration:   7     0.7092D-02
 Iteration:   8     0.2656D-02
 Iteration:   9     0.9018D-03
 Iteration:  10     0.2742D-02
 Iteration:  11     0.3226D-03
 Iteration:  12     0.3793D-03
 Iteration:  13     0.2671D-03
 Iteration:  14     0.1553D-03
 Iteration:  15     0.6840D-03
 Iteration:  16     0.9711D-04
 PAPT operator written to  7000.1
 PAPT orbitals and eigenvalues written to  7000.2

 MP3(D):                -0.80614166  -228.99634036    -0.00977932



 RESULTS
 =======

  Reference energy                   -228.190198709376
  MP3 singlet pair energy              -0.536062084014
  MP3 triplet pair energy              -0.270079571580
  MP3 correlation energy               -0.806141655593

 !MP3 total energy                   -228.996340364970

 Timing summary (sec):

 STEP                 CPU(USER)    SYS     CPU(TOT)    WALL
 Transformation          2.86      0.18      3.04      3.26
 CCSD iterations        40.82      0.30     41.12     16.38

 Program statistics:

 Available memory in ccsd:               805305777
 Min. memory needed in ccsd:               4818004
 Max. memory used in ccsd:                 6428518
 Max. memory used in cckext:               5014700 ( 1 integral passes)



 **********************************************************************************************************************************
 DATASETS  * FILE   NREC   LENGTH (MB)   RECORD NAMES
              1      21      365.02       500      610      700      900      950      970     1000      129      960     1100   
                                          VAR    BASINP    GEOM    SYMINP    ZMAT    AOBASIS   BASIS     P2S    ABASIS      S 
                                         1400     1410     1200     1210     1080     1600     1650     1300     1700     1380   
                                           T        V       H0       H01     AOSYM     SMH    MOLCAS    ERIS     OPER     JKOP   
                                         7000   
                                        PAPT AO    

              2       5        1.79       700     1000      520     2100     7000   
                                         GEOM     BASIS   MCVARS     RHF     PAPT   

 PROGRAMS   *        TOTAL      PAPT    HF-SCF       INT
 CPU TIMES  *        43.46     18.64     14.67      9.99
 REAL TIME  *        49.20 SEC
 DISK USED  *         1.42 GB
 **********************************************************************************************************************************


 PROGRAM * MP2 (Closed-shell)     Authors: C. Hampel, H.-J. Werner, 1991, M. Deegan, P.J. Knowles, 1992


 Convergence thresholds:  THRVAR = 1.00D-08  THRDEN = 1.00D-06

 Number of core orbitals:           3 (   3 )
 Number of closed-shell orbitals:  12 (  12 )
 Number of external orbitals:     159 ( 159 )

 Molecular orbitals read from record     7000.2  Type=PAPT/CANONICAL (state 1.1)

 Number of N-1 electron functions:              12
 Number of N-2 electron functions:              78
 Number of singly external CSFs:              1908
 Number of doubly external CSFs:           1821186
 Total number of CSFs:                     1823095

 Length of J-op  integral file:               0.00 MB
 Length of K-op  integral file:               2.14 MB

 Integral transformation finished. Total CPU:   2.69 sec, npass=  1  Memory used:   4.58 MW
 Orbital energies read from record       7000.2  Type=PAPT/CANONICAL (state 1.1)

 Memory needed for MP2:                      0.15 MW

 SCS-MP2 correlation energy:           -0.801787981538   (PS=  1.200000  PT=  0.333333)
 SCS-MP2 total energy:               -228.991986690914


  Reference energy                   -228.190198709376
  MP2 singlet pair energy              -0.514311260921
  MP2 triplet pair energy              -0.296701824267
  MP2 correlation energy               -0.811013085188

 !MP2 total energy                   -229.001211794564


 **********************************************************************************************************************************
 DATASETS  * FILE   NREC   LENGTH (MB)   RECORD NAMES
              1      21      365.02       500      610      700      900      950      970     1000      129      960     1100   
                                          VAR    BASINP    GEOM    SYMINP    ZMAT    AOBASIS   BASIS     P2S    ABASIS      S 
                                         1400     1410     1200     1210     1080     1600     1650     1300     1700     1380   
                                           T        V       H0       H01     AOSYM     SMH    MOLCAS    ERIS     OPER     JKOP   
                                         7000   
                                        PAPT AO    

              2       5        1.79       700     1000      520     2100     7000   
                                         GEOM     BASIS   MCVARS     RHF     PAPT   

 PROGRAMS   *        TOTAL       MP2      PAPT    HF-SCF       INT
 CPU TIMES  *        47.75      4.29     18.64     14.67      9.99
 REAL TIME  *        53.87 SEC
 DISK USED  *         1.42 GB
 **********************************************************************************************************************************

 Dump information in style XML to xml output                                                                      

 Orbitals will not be exported.

 **********************************************************************************************************************************

 MP2/cc-pVTZ energy=   -229.001211794564

             MP2            PAPT          HF-SCF
   -229.00121179   -228.99634036   -228.19019871
 **********************************************************************************************************************************
 Molpro calculation terminated
