
 Working directory              : /home/jovyan/scratch/molpro.wNhca8fKqN/
 Global scratch directory       : /home/jovyan/scratch/molpro.wNhca8fKqN/
 Wavefunction directory         : /home/jovyan/wfu/
 Main file repository           : /home/jovyan/scratch/molpro.wNhca8fKqN/

 id        : cardiff

 Nodes                nprocs
 jupyter-c-2efrancisan    1
 GA implementation: MPI file
 GA implementation (serial work in mppx): MPI file

 Using customized tuning parameters: mindgm=1; mindgv=20; mindgc=4; mindgr=1; noblas=0; minvec=7
 default implementation of scratch files=df  


 Variables initialized (1031), CPU time= 0.01 sec
 
 
 
 geometry={
           11
     C         -1.14801349     -0.57975568      0.03120696
     C         -1.08021984      0.78192529      0.02639005
     N          1.30543743      1.13121591      0.11743732
     N          1.57534155     -0.09591016      0.00445069
     C          1.06337833     -1.19481227      0.00478589
     H         -1.31347505     -1.11800370      0.95840071
     H         -1.34813898     -1.12998002     -0.87963506
     H         -1.11376040      1.35419025      0.94257550
     H         -1.16281172      1.34381802     -0.89587363
     H          1.77093124      1.66037919     -0.62483756
     H          1.45133094     -2.15306682      0.31509914
 }
 basis=cc-pVTZ
 angstrom
 
 
 hf; mp4
 
 
 
 {put,xml;noorbitals,nobasis}
 Commands initialized (841), CPU time= 0.01 sec, 704 directives.
 Default parameters read. Elapsed time= 0.08 sec

 Checking input...
 Passed
1


                                         ***  PROGRAM SYSTEM MOLPRO  ***
                                       Copyright, TTI GmbH Stuttgart, 2015
                                    Version 2023.1 linked Mon Jun  5 13:27:10 2023


 **********************************************************************************************************************************
 LABEL *                                                                                                                                                                 
  (16 PROC) 64 bit serial version                                                        DATE: 03-Aug-23          TIME: 10:26:49  
 **********************************************************************************************************************************

 SHA1:             9738a14712571edd23541b6d7c4f3a3d766f8287
 **********************************************************************************************************************************

 Memory per process:       805 MW
 Total memory per node:   1074 MW
 Total GA space:           268 MW

 GA preallocation disabled
 GA check enabled

 Geometry recognized as XYZ


 Variable memory set to 805.3 MW

 SETTING BASIS          =    CC-PVTZ


 Recomputing integrals since basis changed


 Using spherical harmonics

 Library entry C      S cc-pVTZ              selected for orbital group  1
 Library entry C      P cc-pVTZ              selected for orbital group  1
 Library entry C      D cc-pVTZ              selected for orbital group  1
 Library entry C      F cc-pVTZ              selected for orbital group  1
 Library entry N      S cc-pVTZ              selected for orbital group  2
 Library entry N      P cc-pVTZ              selected for orbital group  2
 Library entry N      D cc-pVTZ              selected for orbital group  2
 Library entry N      F cc-pVTZ              selected for orbital group  2
 Library entry H      S cc-pVTZ              selected for orbital group  4
 Library entry H      P cc-pVTZ              selected for orbital group  4
 Library entry H      D cc-pVTZ              selected for orbital group  4


 PROGRAM * SEWARD (Integral evaluation for generally contracted gaussian basis sets)     Author: Roland Lindh, 1990

 Geometry written to block  1 of record 700


 Point group  C1  



 ATOMIC COORDINATES

 NR  ATOM    CHARGE       X              Y              Z

   1  C       6.00   -2.169431083   -1.095579454    0.058972608
   2  C       6.00   -2.041319652    1.477624648    0.049869967
   3  N       7.00    2.466919216    2.137688258    0.221924372
   4  N       7.00    2.976964082   -0.181243935    0.008410585
   5  C       6.00    2.009493811   -2.257867961    0.009044021
   6  H       1.00   -2.482108116   -2.112720799    1.811114860
   7  H       1.00   -2.547613450   -2.135352764   -1.662269353
   8  H       1.00   -2.104702124    2.559048693    1.781209547
   9  H       1.00   -2.197395685    2.539448019   -1.692955803
  10  H       1.00    3.346575029    3.137661932   -1.180771861
  11  H       1.00    2.742617993   -4.068706618    0.595451077

 Bond lengths in Bohr (Angstrom)

 1-2  2.576407334  1-6  2.049962418  1-7  2.046173093  2-8  2.042310467  2-9  2.046770692
     ( 1.363376047)     ( 1.084793395)     ( 1.082788170)     ( 1.080744157)     ( 1.083104406)

  3- 4  2.383942201   3-10  1.934243630   4- 5  2.290931355   5-11  2.039725703
       ( 1.261527885)       ( 1.023557649)       ( 1.212308665)       ( 1.079376359)

 Bond angles

  1-2-8  121.62203767   1-2-9  121.15476259   2-1-6  120.40858136   2-1-7  120.91338229

  3- 4- 5  142.31262266   4- 3-10  109.91558835   4- 5-11  130.77046409   6- 1- 7  116.01874710

  8-2-9  116.40935928

 NUCLEAR CHARGE:                   38
 NUMBER OF PRIMITIVE AOS:         337
 NUMBER OF SYMMETRY AOS:          306
 NUMBER OF CONTRACTIONS:          234   (  234A   )
 NUMBER OF INNER CORE ORBITALS:     0   (    0A   )
 NUMBER OF OUTER CORE ORBITALS:     5   (    5A   )
 NUMBER OF VALENCE ORBITALS:       26   (   26A   )


 NUCLEAR REPULSION ENERGY  160.16494666


 Eigenvalues of metric

         1 0.369E-03 0.870E-03 0.924E-03 0.125E-02 0.133E-02 0.142E-02 0.145E-02 0.157E-02


 Contracted 2-electron integrals neglected if value below      1.0D-11
 AO integral compression algorithm  1   Integral accuracy      1.0D-11

     1346.109 MB (compressed) written to integral file ( 41.4%)


 NUMBER OF SORTED TWO-ELECTRON INTEGRALS:  378001260.     BUFFER LENGTH:  32768
 NUMBER OF SEGMENTS:  24  SEGMENT LENGTH:   15999762      RECORD LENGTH: 524288

 Memory used in sort:      16.56 MW

 SORT1 READ   406016940. AND WROTE   339133609. INTEGRALS IN    981 RECORDS. CPU TIME:     5.02 SEC, REAL TIME:     7.65 SEC
 SORT2 READ   339133609. AND WROTE   378001260. INTEGRALS IN   5135 RECORDS. CPU TIME:     5.73 SEC, REAL TIME:     7.32 SEC

 FILE SIZES:   FILE 1:  1378.3 MBYTE,  FILE 4:  4114.7 MBYTE,   TOTAL:   5493.0 MBYTE

 OPERATOR DM      FOR CENTER  0  COORDINATES:    0.000000    0.000000    0.000000


 **********************************************************************************************************************************
 DATASETS  * FILE   NREC   LENGTH (MB)   RECORD NAMES
              1      19     1204.12       500      610      700      900      950      970     1000      129      960     1100   
                                          VAR    BASINP    GEOM    SYMINP    ZMAT    AOBASIS   BASIS     P2S    ABASIS      S 
                                         1400     1410     1200     1210     1080     1600     1650     1300     1700   
                                           T        V       H0       H01     AOSYM     SMH    MOLCAS    ERIS     OPER   

 PROGRAMS   *        TOTAL       INT
 CPU TIMES  *        34.02     33.88
 REAL TIME  *        42.74 SEC
 DISK USED  *         5.12 GB
 **********************************************************************************************************************************


 Program * Restricted Hartree-Fock

 Orbital guess generated from atomic densities. Full valence occupancy:   31

 Initial occupancy:  19

 NELEC=   38   SYM=1   MS2= 0   THRE=1.0D-08   THRD=3.2D-06   THRG=3.2D-06  HFMA2=F  DIIS_START=2   DIIS_MAX=10   DIIS_INCORE=F

 Level shifts:    0.00 (CLOSED)    0.00 (OPEN)    0.30 (GAP_MIN)

 ITER           ETOT              DE          GRAD        DDIFF     DIIS  NEXP   TIME(IT)  TIME(TOT)  DIAG
   1     -225.79282088    -225.79282088     0.00D+00     0.49D-01     0     0       4.23      8.35    start
   2     -225.84541360      -0.05259272     0.37D-02     0.53D-02     1     0       4.29     12.64    diag
