
 Working directory              : /home/jovyan/scratch/molpro.4c1jEVbImX/
 Global scratch directory       : /home/jovyan/scratch/molpro.4c1jEVbImX/
 Wavefunction directory         : /home/jovyan/wfu/
 Main file repository           : /home/jovyan/scratch/molpro.4c1jEVbImX/

 id        : cardiff

 Nodes                nprocs
 jupyter-c-2efrancisan    1
 GA implementation: MPI file
 GA implementation (serial work in mppx): MPI file

 Using customized tuning parameters: mindgm=1; mindgv=20; mindgc=4; mindgr=1; noblas=0; minvec=7
 default implementation of scratch files=df  


 Variables initialized (1031), CPU time= 0.01 sec
 
 
 
 geometry={
            1
     F          0.00000000      0.00000000      0.00000000
 }
 basis=cc-pVDZ
 angstrom
 charge=-1
 
 hf; mp4
 
 
 
 {put,xml;noorbitals,nobasis}
 Commands initialized (841), CPU time= 0.01 sec, 704 directives.
 Default parameters read. Elapsed time= 0.11 sec

 Checking input...
 Passed
1


                                         ***  PROGRAM SYSTEM MOLPRO  ***
                                       Copyright, TTI GmbH Stuttgart, 2015
                                    Version 2023.1 linked Mon Jun  5 13:27:10 2023


 **********************************************************************************************************************************
 LABEL *                                                                                                                                                                 
  (16 PROC) 64 bit serial version                                                        DATE: 02-Aug-23          TIME: 15:39:32  
 **********************************************************************************************************************************

 SHA1:             9738a14712571edd23541b6d7c4f3a3d766f8287
 **********************************************************************************************************************************

 Memory per process:       805 MW
 Total memory per node:   1074 MW
 Total GA space:           268 MW

 GA preallocation disabled
 GA check enabled

 Geometry recognized as XYZ


 Variable memory set to 805.3 MW

 SETTING BASIS          =    CC-PVDZ
 SETTING CHARGE         =        -1.00000000                                  


 Recomputing integrals since basis changed


 Using spherical harmonics

 Library entry F      S cc-pVDZ              selected for orbital group  1
 Library entry F      P cc-pVDZ              selected for orbital group  1
 Library entry F      D cc-pVDZ              selected for orbital group  1


 PROGRAM * SEWARD (Integral evaluation for generally contracted gaussian basis sets)     Author: Roland Lindh, 1990

 Geometry written to block  1 of record 700

 Orientation using atomic masses  
 Molecule type: Atom
 Symmetry elements: X,Y,Z
 Rotational constants:       0.0000000      0.0000000      0.0000000 GHz  (calculated with average atomic masses)

 Point group  D2h 



 ATOMIC COORDINATES

 NR  ATOM    CHARGE       X              Y              Z

   1  F       9.00    0.000000000    0.000000000    0.000000000

 NUCLEAR CHARGE:                    9
 NUMBER OF PRIMITIVE AOS:          27
 NUMBER OF SYMMETRY AOS:           26
 NUMBER OF CONTRACTIONS:           14   (    5Ag  +    2B3u +    2B2u +    1B1g +    2B1u +    1B2g +    1B3g +    0Au  )
 NUMBER OF INNER CORE ORBITALS:     0   (    0Ag  +    0B3u +    0B2u +    0B1g +    0B1u +    0B2g +    0B3g +    0Au  )
 NUMBER OF OUTER CORE ORBITALS:     1   (    1Ag  +    0B3u +    0B2u +    0B1g +    0B1u +    0B2g +    0B3g +    0Au  )
 NUMBER OF VALENCE ORBITALS:        4   (    1Ag  +    1B3u +    1B2u +    0B1g +    1B1u +    0B2g +    0B3g +    0Au  )


 NUCLEAR REPULSION ENERGY    0.00000000

 EXTRA SYMMETRY OF AOS IN SYMMETRY 1:   1 1 1 2 3

 Eigenvalues of metric

         1 0.487E-01 0.100E+01 0.100E+01 0.100E+01 0.195E+01
         2 0.202E+00 0.180E+01
         3 0.202E+00 0.180E+01
         4 0.100E+01
         5 0.202E+00 0.180E+01
         6 0.100E+01
         7 0.100E+01


 Contracted 2-electron integrals neglected if value below      1.0D-11
 AO integral compression algorithm  1   Integral accuracy      1.0D-11

     0.262 MB (compressed) written to integral file (100.0%)


 NUMBER OF SORTED TWO-ELECTRON INTEGRALS:       1083.     BUFFER LENGTH:  32768
 NUMBER OF SEGMENTS:   1  SEGMENT LENGTH:       1083      RECORD LENGTH: 524288

 Memory used in sort:       0.56 MW

 SORT1 READ        1852. AND WROTE         968. INTEGRALS IN      1 RECORDS. CPU TIME:     0.00 SEC, REAL TIME:     0.01 SEC
 SORT2 READ         968. AND WROTE        1083. INTEGRALS IN      1 RECORDS. CPU TIME:     0.00 SEC, REAL TIME:     0.01 SEC

 FILE SIZES:   FILE 1:    30.2 MBYTE,  FILE 4:     4.3 MBYTE,   TOTAL:     34.5 MBYTE

 OPERATOR DM      FOR CENTER  0  COORDINATES:    0.000000    0.000000    0.000000


 **********************************************************************************************************************************
 DATASETS  * FILE   NREC   LENGTH (MB)   RECORD NAMES
              1      19       28.59       500      610      700      900      950      970     1000      129      960     1100   
                                          VAR    BASINP    GEOM    SYMINP    ZMAT    AOBASIS   BASIS     P2S    ABASIS      S 
                                         1400     1410     1200     1210     1080     1600     1650     1300     1700   
                                           T        V       H0       H01     AOSYM     SMH    MOLCAS    ERIS     OPER   

 PROGRAMS   *        TOTAL       INT
 CPU TIMES  *         0.45      0.31
 REAL TIME  *         2.01 SEC
 DISK USED  *        33.21 MB
 **********************************************************************************************************************************


 Program * Restricted Hartree-Fock

 Orbital guess generated from atomic densities. Full valence occupancy:    2   1   1   0   1   0   0   0


 Initial occupancy:   2   1   1   0   1   0   0

 NELEC=   10   SYM=1   MS2= 0   THRE=1.0D-08   THRD=3.2D-06   THRG=3.2D-06  HFMA2=F  DIIS_START=2   DIIS_MAX=10   DIIS_INCORE=F

 Level shifts:    0.00 (CLOSED)    0.00 (OPEN)    0.30 (GAP_MIN)

 ITER           ETOT              DE          GRAD        DDIFF     DIIS  NEXP   TIME(IT)  TIME(TOT)  DIAG
   1      -99.29785341     -99.29785341     0.00D+00     0.84D+00     0     0       0.00      0.01    start
   2      -99.34608743      -0.04823403     0.11D+00     0.20D+00     1     0       0.00      0.01    diag
   3      -99.36598302      -0.01989559     0.62D-01     0.68D-01     2     0       0.00      0.01    diag
   4      -99.36598357      -0.00000055     0.43D-03     0.39D-03     3     0       0.00      0.01    diag
   5      -99.36598357      -0.00000000     0.95D-05     0.23D-04     4     0       0.00      0.01    diag
   6      -99.36598357      -0.00000000     0.19D-05     0.11D-05     5     0       0.00      0.01    diag
   7      -99.36598357      -0.00000000     0.66D-09     0.10D-08     0     0       0.00      0.01    diag

 Final occupancy:   2   1   1   0   1   0   0

 !RHF STATE 1.1 Energy                -99.365983566384
  RHF One-electron energy            -144.878694211734
  RHF Two-electron energy              45.512710645349
  RHF Kinetic energy                   99.646029006965
  RHF Nuclear energy                    0.000000000000
  RHF Virial quotient                  -0.997189597585

 !RHF STATE 1.1 Dipole moment           0.00000000     0.00000000     0.00000000
 Dipole moment /Debye                   0.00000000     0.00000000     0.00000000

 Orbital energies:

           1.1          2.1          3.1          4.1
    -25.703605    -0.975208     2.299631     4.550828

           1.2          2.2
     -0.082608     1.938186

           1.3          2.3
     -0.082608     1.938186

           1.4
      4.550828

           1.5          2.5
     -0.082608     1.938186

           1.6
      4.550828

           1.7
      4.550828


 HOMO      1.5    -0.082608 =      -2.2479eV
 LUMO      2.2     1.938186 =      52.7407eV
 LUMO-HOMO         2.020794 =      54.9886eV

 Orbitals saved in record  2100.2


 **********************************************************************************************************************************
 DATASETS  * FILE   NREC   LENGTH (MB)   RECORD NAMES
              1      19       28.59       500      610      700      900      950      970     1000      129      960     1100   
                                          VAR    BASINP    GEOM    SYMINP    ZMAT    AOBASIS   BASIS     P2S    ABASIS      S 
                                         1400     1410     1200     1210     1080     1600     1650     1300     1700   
                                           T        V       H0       H01     AOSYM     SMH    MOLCAS    ERIS     OPER   

              2       4        0.38       700     1000      520     2100   
                                         GEOM     BASIS   MCVARS     RHF  

 PROGRAMS   *        TOTAL    HF-SCF       INT
 CPU TIMES  *         0.46      0.01      0.31
 REAL TIME  *         2.08 SEC
 DISK USED  *        33.21 MB
 **********************************************************************************************************************************


 PROGRAM * MP4 (Closed-shell)     Authors: C. Hampel, H.-J. Werner, 1991, M. Deegan, P.J. Knowles, 1992


 Convergence thresholds:  THRVAR = 1.00D-08  THRDEN = 1.00D-06

 MP4(T)     terms to be evaluated (factor= 0.000)


 Number of core orbitals:           1 (   1   0   0   0   0   0   0   0 )
 Number of closed-shell orbitals:   4 (   1   1   1   0   1   0   0   0 )
 Number of external orbitals:       9 (   3   1   1   1   1   1   1   0 )

 Molecular orbitals read from record     2100.2  Type=RHF/CANONICAL  

 Number of N-1 electron functions:               4
 Number of N-2 electron functions:              10
 Number of singly external CSFs:                 6
 Number of doubly external CSFs:               108
 Total number of CSFs:                         115

 Length of J-op  integral file:               0.00 MB
 Length of K-op  integral file:               0.07 MB

 Memory could be reduced to 0.06 Mwords without degradation in triples

 Integral transformation finished. Total CPU:   0.00 sec, npass=  1  Memory used:   0.07 MW

 Reference energy:                    -99.36598357

                        CORR.ENERGY   TOTAL ENERGY   ENERGY CHANGE
 MP2:                   -0.18860920   -99.55459276    -0.18860920

 SCS-MP2 correlation energy:           -0.18159483   (PS=  1.200000  PT=  0.333333)
 SCS-MP2 total energy:                -99.54757839

 MP3(D):                -0.19011333   -99.55609689    -0.00150413
 MP4(DQ):               -0.19169402   -99.55767759    -0.00158069
 MP4(SDQ):              -0.19171070   -99.55769427    -0.00001668

 Norm of t1 vector:      0.00251017      S-energy:    -0.00001668      T1 diagnostic:  0.00062754


 Total CPU time for triples:      0.00 sec


 RESULTS
 =======

  Reference energy                    -99.365983566384
  MP4(SDQ) singlet pair energy         -0.119475748783
  MP4(SDQ) triplet pair energy         -0.072218273611
  MP4(SDQ) correlation energy          -0.191710700601

  Triples contribution                 -0.000632392973
  Total correlation energy             -0.192343093574

  MP4(SDQ) total energy               -99.557694266985
 !MP4(SDTQ) total energy              -99.558326659958

 Timing summary (sec):

 STEP                 CPU(USER)    SYS     CPU(TOT)    WALL
 Transformation          0.01      0.00      0.01      0.18
 CCSD iterations         0.93      0.00      0.93      0.01

 Program statistics:

 Available memory in ccsd:               805306302
 Min. memory needed in ccsd:                  1072
 Max. memory used in ccsd:                    1074
 Max. memory used in cckext:                 33880 ( 1 integral passes)



 **********************************************************************************************************************************
 DATASETS  * FILE   NREC   LENGTH (MB)   RECORD NAMES
              1      20       28.60       500      610      700      900      950      970     1000      129      960     1100   
                                          VAR    BASINP    GEOM    SYMINP    ZMAT    AOBASIS   BASIS     P2S    ABASIS      S 
                                         1400     1410     1200     1210     1080     1600     1650     1300     1700     1380   
                                           T        V       H0       H01     AOSYM     SMH    MOLCAS    ERIS     OPER     JKOP   

              2       4        0.38       700     1000      520     2100   
                                         GEOM     BASIS   MCVARS     RHF  

 PROGRAMS   *        TOTAL       MP4    HF-SCF       INT
 CPU TIMES  *         0.52      0.06      0.01      0.31
 REAL TIME  *         2.38 SEC
 DISK USED  *        33.21 MB
 **********************************************************************************************************************************

 Dump information in style XML to xml output                                                                      

 Orbitals will not be exported.

 **********************************************************************************************************************************

 MP4/cc-pVDZ energy=    -99.558326659958

             MP4          HF-SCF
    -99.55832666    -99.36598357
 **********************************************************************************************************************************
 Molpro calculation terminated
