
 Working directory              : /home/jovyan/scratch/molpro.kZoOSnygra/
 Global scratch directory       : /home/jovyan/scratch/molpro.kZoOSnygra/
 Wavefunction directory         : /home/jovyan/wfu/
 Main file repository           : /home/jovyan/scratch/molpro.kZoOSnygra/

 id        : cardiff

 Nodes                nprocs
 jupyter-c-2efrancisan    1
 GA implementation: MPI file
 GA implementation (serial work in mppx): MPI file

 Using customized tuning parameters: mindgm=1; mindgv=20; mindgc=4; mindgr=1; noblas=0; minvec=7
 default implementation of scratch files=df  


 Variables initialized (1031), CPU time= 0.01 sec
 
 
 
 geometry={
 20
  C    -0.0068699    0.7702573    0.4144412
  C     0.0068699   -0.7702573    0.4144412
  C     1.4079116   -1.3250763    0.6406010
  H    -0.6108025   -1.0881108    1.2568246
  C    -0.6003722   -1.3575502   -0.8538179
  C    -1.4079116    1.3250763    0.6406010
  C     0.6003722    1.3575502   -0.8538179
  H     0.6108025    1.0881108    1.2568246
  H     1.3847819   -2.3993600    0.8127175
  H     2.0448598   -1.1492812   -0.2243403
  H     1.8818018   -0.8616367    1.5028837
  H     0.0501521   -1.1813558   -1.7079723
  H    -0.7346481   -2.4327435   -0.7611970
  H    -1.5708616   -0.9207720   -1.0801440
  H     0.7346481    2.4327435   -0.7611970
  H     1.5708616    0.9207720   -1.0801440
  H    -0.0501521    1.1813558   -1.7079723
  H    -1.3847819    2.3993600    0.8127175
  H    -2.0448598    1.1492812   -0.2243403
  H    -1.8818018    0.8616367    1.5028837
 }
 basis=cc-pVTZ
 angstrom
 
 
 hf; ccsd
 
 
 
 {put,xml;noorbitals,nobasis}
 Commands initialized (841), CPU time= 0.01 sec, 704 directives.
 Default parameters read. Elapsed time= 0.09 sec

 Checking input...
 Passed
1


                                         ***  PROGRAM SYSTEM MOLPRO  ***
                                       Copyright, TTI GmbH Stuttgart, 2015
                                    Version 2023.1 linked Mon Jun  5 13:27:10 2023


 **********************************************************************************************************************************
 LABEL *                                                                                                                                                                 
  (16 PROC) 64 bit serial version                                                        DATE: 04-Aug-23          TIME: 06:14:02  
 **********************************************************************************************************************************

 SHA1:             9738a14712571edd23541b6d7c4f3a3d766f8287
 **********************************************************************************************************************************

 Memory per process:       805 MW
 Total memory per node:   1074 MW
 Total GA space:           268 MW

 GA preallocation disabled
 GA check enabled

 Geometry recognized as XYZ


 Variable memory set to 805.3 MW

 SETTING BASIS          =    CC-PVTZ


 Recomputing integrals since basis changed


 Using spherical harmonics

 Library entry C      S cc-pVTZ              selected for orbital group  1
 Library entry C      P cc-pVTZ              selected for orbital group  1
 Library entry C      D cc-pVTZ              selected for orbital group  1
 Library entry C      F cc-pVTZ              selected for orbital group  1
 Library entry H      S cc-pVTZ              selected for orbital group  2
 Library entry H      P cc-pVTZ              selected for orbital group  2
 Library entry H      D cc-pVTZ              selected for orbital group  2


 PROGRAM * SEWARD (Integral evaluation for generally contracted gaussian basis sets)     Author: Roland Lindh, 1990

 Geometry written to block  1 of record 700


 Point group  C2  



 ATOMIC COORDINATES

 NR  ATOM    CHARGE       X              Y              Z

   1  C       6.00   -0.012982230    1.455575342    0.783180363
   2  C       6.00    0.012982230   -1.455575342    0.783180363
   3  C       6.00    2.660567332   -2.504031301    1.210560445
   4  C       6.00   -2.660567332    2.504031301    1.210560445
   5  H       1.00   -1.154249441   -2.056231405    2.375054281
   6  H       1.00    1.154249441    2.056231405    2.375054281
   7  C       6.00   -1.134539031   -2.565398078   -1.613481991
   8  C       6.00    1.134539031    2.565398078   -1.613481991
   9  H       1.00    2.616858533   -4.534133274    1.535813492
  10  H       1.00   -2.616858533    4.534133274    1.535813492
  11  H       1.00    3.864224985   -2.171826708   -0.423941726
  12  H       1.00   -3.864224985    2.171826708   -0.423941726
  13  H       1.00    3.556090023   -1.628257382    2.840038590
  14  H       1.00   -3.556090023    1.628257382    2.840038590
  15  H       1.00    0.094773734   -2.232438918   -3.227599875
  16  H       1.00   -0.094773734    2.232438918   -3.227599875
  17  H       1.00   -1.388283707   -4.597218946   -1.438453857
  18  H       1.00    1.388283707    4.597218946   -1.438453857
  19  H       1.00   -2.968498204   -1.740006903   -2.041176335
  20  H       1.00    2.968498204    1.740006903   -2.041176335

 Bond lengths in Bohr (Angstrom)

 1-2  2.911266471  1-4  2.879517408  1-6  2.063317729  1-8  2.879670465  2-3  2.879517408
     ( 1.540575871)     ( 1.523774991)     ( 1.091860721)     ( 1.523855985)     ( 1.523774991)

  2- 5  2.063317729   2- 7  2.879670465   3- 9  2.056456667   3-11  2.056878457   3-13  2.055271241
       ( 1.091860721)       ( 1.523855985)       ( 1.088230004)       ( 1.088453205)       ( 1.087602703)

  4-10  2.056456667   4-12  2.056878457   4-14  2.055271241   7-15  2.056075927   7-17  2.055071105
       ( 1.088230004)       ( 1.088453205)       ( 1.087602703)       ( 1.088028525)       ( 1.087496796)

  7-19  2.056112665   8-16  2.056075927   8-18  2.055071105   8-20  2.056112665
       ( 1.088047965)       ( 1.088028525)       ( 1.087496796)       ( 1.088047965)

 Bond angles

  1- 2- 3  111.85716379   1- 2- 5  106.62191359   1- 2- 7  112.44707730   1- 4-10  111.30754942

  1- 4-12  111.18022733   1- 4-14  111.29354834   1- 8-16  110.65289770   1- 8-18  111.06077852

  1- 8-20  111.95293704   2- 1- 4  111.85716379   2- 1- 6  106.62191359   2- 1- 8  112.44707730

  2- 3- 9  111.30754942   2- 3-11  111.18022733   2- 3-13  111.29354834   2- 7-15  110.65289770

  2- 7-17  111.06077852   2- 7-19  111.95293704   3- 2- 5  107.43577620   3- 2- 7  110.46241674

  4-1-6  107.43577620   4-1-8  110.46241674   5-2-7  107.72706582   6-1-8  107.72706582

  9- 3-11  107.31115137   9- 3-13  107.72904426  10- 4-12  107.31115137  10- 4-14  107.72904426

 11- 3-13  107.83184857  12- 4-14  107.83184857  15- 7-17  107.50517599  15- 7-19  107.75736744

 16- 8-18  107.50517599  16- 8-20  107.75736744  17- 7-19  107.72660905  18- 8-20  107.72660905

 NUCLEAR CHARGE:                   50
 NUMBER OF PRIMITIVE AOS:         520
 NUMBER OF SYMMETRY AOS:          476
 NUMBER OF CONTRACTIONS:          376   (  188A   +  188B   )
 NUMBER OF INNER CORE ORBITALS:     0   (    0A   +    0B   )
 NUMBER OF OUTER CORE ORBITALS:     6   (    3A   +    3B   )
 NUMBER OF VALENCE ORBITALS:       38   (   19A   +   19B   )


 NUCLEAR REPULSION ENERGY  265.42164491


 Eigenvalues of metric

         1 0.742E-03 0.885E-03 0.966E-03 0.112E-02 0.122E-02 0.138E-02 0.144E-02 0.153E-02
         2 0.397E-03 0.482E-03 0.797E-03 0.110E-02 0.111E-02 0.123E-02 0.124E-02 0.136E-02


 Contracted 2-electron integrals neglected if value below      1.0D-11
 AO integral compression algorithm  1   Integral accuracy      1.0D-11

     5156.635 MB (compressed) written to integral file ( 46.5%)


 NUMBER OF SORTED TWO-ELECTRON INTEGRALS: 1262540790.     BUFFER LENGTH:  32768
 NUMBER OF SEGMENTS:  40  SEGMENT LENGTH:   31999469      RECORD LENGTH: 524288

 Memory used in sort:      32.56 MW

 SORT1 READ  1386131640. AND WROTE  1209501965. INTEGRALS IN   3482 RECORDS. CPU TIME:    23.58 SEC, REAL TIME:    38.77 SEC
 SORT2 READ  1209501965. AND WROTE  1262540790. INTEGRALS IN  19671 RECORDS. CPU TIME:    23.60 SEC, REAL TIME:    34.20 SEC

 FILE SIZES:   FILE 1:  5190.5 MBYTE,  FILE 4: 14604.6 MBYTE,   TOTAL:  19795.1 MBYTE

 OPERATOR DM      FOR CENTER  0  COORDINATES:    0.000000    0.000000    0.000000


 **********************************************************************************************************************************
 DATASETS  * FILE   NREC   LENGTH (MB)   RECORD NAMES
              1      19     4748.67       500      610      700      900      950      970     1000      129      960     1100   
                                          VAR    BASINP    GEOM    SYMINP    ZMAT    AOBASIS   BASIS     P2S    ABASIS      S 
                                         1400     1410     1200     1210     1080     1600     1650     1300     1700   
                                           T        V       H0       H01     AOSYM     SMH    MOLCAS    ERIS     OPER   

 PROGRAMS   *        TOTAL       INT
 CPU TIMES  *       180.03    179.87
 REAL TIME  *       225.73 SEC
 DISK USED  *        18.44 GB
 **********************************************************************************************************************************


 Program * Restricted Hartree-Fock

 Orbital guess generated from atomic densities. Full valence occupancy:   22  22

 Initial occupancy:  13  12

 NELEC=   50   SYM=1   MS2= 0   THRE=1.0D-08   THRD=3.2D-06   THRG=3.2D-06  HFMA2=F  DIIS_START=2   DIIS_MAX=10   DIIS_INCORE=F

 Level shifts:    0.00 (CLOSED)    0.00 (OPEN)    0.30 (GAP_MIN)

 ITER           ETOT              DE          GRAD        DDIFF     DIIS  NEXP   TIME(IT)  TIME(TOT)  DIAG
   1     -235.35158026    -235.35158026     0.00D+00     0.52D-01     0     0       9.15     17.83    start
   2     -235.43248464      -0.08090438     0.37D-02     0.51D-02     1     0       9.18     27.01    diag
   3     -235.44339797      -0.01091333     0.15D-02     0.16D-02     2     0       9.12     36.13    diag
   4     -235.44513184      -0.00173388     0.49D-03     0.59D-03     3     0       9.08     45.21    diag
   5     -235.44518400      -0.00005215     0.90D-04     0.13D-03     4     0       9.09     54.30    diag
   6     -235.44518892      -0.00000493     0.27D-04     0.49D-04     5     0       9.15     63.45    diag
   7     -235.44518906      -0.00000013     0.38D-05     0.92D-05     6     0       9.13     72.58    diag
   8     -235.44518907      -0.00000001     0.99D-06     0.21D-05     7     0       9.14     81.72    fixocc
   9     -235.44518907      -0.00000000     0.25D-06     0.42D-06     0     0       9.19     90.91    diag

 Final occupancy:  13  12

 !RHF STATE 1.1 Energy               -235.445189067146
  RHF One-electron energy            -842.428507226038
  RHF Two-electron energy             341.561673248321
  RHF Kinetic energy                  235.332574450825
  RHF Nuclear energy                  265.421644910571
  RHF Virial quotient                  -1.000478533907

 !RHF STATE 1.1 Dipole moment           0.00000000     0.00000000     0.04887588
 Dipole moment /Debye                   0.00000000     0.00000000     0.12423010

 Orbital energies:

           1.1          2.1          3.1          4.1          5.1          6.1          7.1          8.1          9.1         10.1
    -11.217442   -11.204229   -11.203668    -1.105313    -0.925163    -0.835090    -0.641878    -0.603927    -0.550246    -0.526708

          11.1         12.1         13.1         14.1         15.1
     -0.488657    -0.445529    -0.435277     0.137052     0.169445

           1.2          2.2          3.2          4.2          5.2          6.2          7.2          8.2          9.2         10.2
    -11.216853   -11.204225   -11.203672    -1.011265    -0.930169    -0.735833    -0.614768    -0.561518    -0.537046    -0.520178

          11.2         12.2         13.2         14.2
     -0.486889    -0.447047     0.166175     0.173266


 HOMO     13.1    -0.435277 =     -11.8445eV
 LUMO     14.1     0.137052 =       3.7294eV
 LUMO-HOMO         0.572329 =      15.5739eV

 Orbitals saved in record  2100.2


 **********************************************************************************************************************************
 DATASETS  * FILE   NREC   LENGTH (MB)   RECORD NAMES
              1      19     4748.67       500      610      700      900      950      970     1000      129      960     1100   
                                          VAR    BASINP    GEOM    SYMINP    ZMAT    AOBASIS   BASIS     P2S    ABASIS      S 
                                         1400     1410     1200     1210     1080     1600     1650     1300     1700   
                                           T        V       H0       H01     AOSYM     SMH    MOLCAS    ERIS     OPER   

              2       4        1.84       700     1000      520     2100   
                                         GEOM     BASIS   MCVARS     RHF  

 PROGRAMS   *        TOTAL    HF-SCF       INT
 CPU TIMES  *       270.94     90.91    179.87
 REAL TIME  *       328.44 SEC
 DISK USED  *        18.44 GB
 **********************************************************************************************************************************


 PROGRAM * CCSD (Closed-shell coupled cluster)     Authors: C. Hampel, H.-J. Werner, 1991, M. Deegan, P.J. Knowles, 1992


 Convergence thresholds:  THRVAR = 1.00D-08  THRDEN = 1.00D-06

 Number of core orbitals:           6 (   3   3 )
 Number of closed-shell orbitals:  19 (  10   9 )
 Number of external orbitals:     351 ( 175 176 )

 Molecular orbitals read from record     2100.2  Type=RHF/CANONICAL  

 Number of N-1 electron functions:              19
 Number of N-2 electron functions:             190
 Number of singly external CSFs:              3334
 Number of doubly external CSFs:          11122225
 Total number of CSFs:                    11125560

 Length of J-op  integral file:               0.00 MB
 Length of K-op  integral file:               4.92 MB
 Length of 3-ext integral record:             0.00 MB

 Integral transformation finished. Total CPU: 147.90 sec, npass=  1  Memory used: 212.19 MW

 Reference energy:                   -235.44518907

 MP2 singlet pair energy:              -0.72131645
 MP2 triplet pair energy:              -0.35385222
 MP2 correlation energy:               -1.07516867
 MP2 total energy:                   -236.52035774

 SCS-MP2 correlation energy:           -1.08575445   (PS=  1.200000  PT=  0.333333)
 SCS-MP2 total energy:               -236.53094352

 ITER.      SQ.NORM     CORR.ENERGY   TOTAL ENERGY   ENERGY CHANGE        DEN1      VAR(S)    VAR(P)  DIIS     TIME  TIME/IT
   1      1.36412361    -1.13951185  -236.58470092    -0.06434318    -0.03762501  0.31D-02  0.53D-02  1  1   505.36    89.27
   2      1.38909863    -1.14407415  -236.58926322    -0.00456230    -0.02619602  0.50D-04  0.51D-03  2  2   593.56    90.71
   3      1.39579865    -1.14411011  -236.58929917    -0.00003595    -0.00433247  0.11D-04  0.28D-04  3  3   681.35    90.98
   4      1.39741854    -1.14415799  -236.58934706    -0.00004788    -0.00073419  0.74D-06  0.18D-05  4  4   769.32    91.07
   5      1.39767090    -1.14416325  -236.58935232    -0.00000526    -0.00008877  0.66D-07  0.14D-06  5  5   857.00    91.04
   6      1.39770774    -1.14415906  -236.58934812     0.00000420    -0.00001322  0.73D-08  0.94D-08  6  6   944.45    91.00
   7      1.39770886    -1.14415868  -236.58934775     0.00000038    -0.00000018  0.11D-08  0.88D-09  6  2  1031.69    90.93
   8      1.39770967    -1.14415861  -236.58934767     0.00000007    -0.00000051  0.18D-09  0.87D-10  6  1  1119.93    91.02

 Norm of t1 vector:      0.07268831      S-energy:    -0.00000005      T1 diagnostic:  0.00833792
                                                                       D1 diagnostic:  0.01600239
                                                                       D2 diagnostic:  0.14586210 (internal)


 RESULTS
 =======

  Reference energy                   -235.445189067146
  CCSD singlet pair energy             -0.812699596141
  CCSD triplet pair energy             -0.331458960938
  CCSD correlation energy              -1.144158607733

 !CCSD total energy                  -236.589347674878

 Timing summary (sec):

 STEP                 CPU(USER)    SYS     CPU(TOT)    WALL
 Transformation        148.61      5.05    153.66    155.67
 CCSD iterations       972.17     20.05    992.22    729.21

 Program statistics:

 Available memory in ccsd:               805304911
 Min. memory needed in ccsd:              26244115
 Max. memory used in ccsd:                36608477
 Max. memory used in cckext:              34139335 ( 8 integral passes)



 **********************************************************************************************************************************
 DATASETS  * FILE   NREC   LENGTH (MB)   RECORD NAMES
              1      20     6475.20       500      610      700      900      950      970     1000      129      960     1100   
                                          VAR    BASINP    GEOM    SYMINP    ZMAT    AOBASIS   BASIS     P2S    ABASIS      S 
                                         1400     1410     1200     1210     1080     1600     1650     1300     1700     1380   
                                           T        V       H0       H01     AOSYM     SMH    MOLCAS    ERIS     OPER     JKOP   

              2       4        1.84       700     1000      520     2100   
                                         GEOM     BASIS   MCVARS     RHF  

 PROGRAMS   *        TOTAL      CCSD    HF-SCF       INT
 CPU TIMES  *      1120.58    849.63     90.91    179.87
 REAL TIME  *      1213.83 SEC
 DISK USED  *        18.44 GB
 **********************************************************************************************************************************

 Dump information in style XML to xml output                                                                      

 Orbitals will not be exported.

 **********************************************************************************************************************************

 CCSD/cc-pVTZ energy=   -236.589347674878

            CCSD          HF-SCF
   -236.58934767   -235.44518907
 **********************************************************************************************************************************
 Molpro calculation terminated
