
 Working directory              : /home/jovyan/scratch/molpro.dOYBx3LCsw/
 Global scratch directory       : /home/jovyan/scratch/molpro.dOYBx3LCsw/
 Wavefunction directory         : /home/jovyan/wfu/
 Main file repository           : /home/jovyan/scratch/molpro.dOYBx3LCsw/

 id        : cardiff

 Nodes                nprocs
 jupyter-c-2efrancisan    1
 GA implementation: MPI file
 GA implementation (serial work in mppx): MPI file

 Using customized tuning parameters: mindgm=1; mindgv=20; mindgc=4; mindgr=1; noblas=0; minvec=7
 default implementation of scratch files=df  


 Variables initialized (1031), CPU time= 0.00 sec
 
 
 
 geometry={
 6
  3HF-TS (Full point group D3h)
  H 0.000000 0.928503 0.000000
  H 0.804107 -0.464251 0.000000
  H -0.804107 -0.464251 0.000000
  F 0.000000 -1.304172 0.000000
  F -1.129446 0.652086 0.000000
  F 1.129446 0.652086 0.000000
 }
 basis=cc-pVDZ
 angstrom
 
 
 hf; papt;mp2
 
 
 
 {put,xml;noorbitals,nobasis}
 Commands initialized (841), CPU time= 0.01 sec, 704 directives.
 Default parameters read. Elapsed time= 0.08 sec

 Checking input...
 Passed
1


                                         ***  PROGRAM SYSTEM MOLPRO  ***
                                       Copyright, TTI GmbH Stuttgart, 2015
                                    Version 2023.1 linked Mon Jun  5 13:27:10 2023


 **********************************************************************************************************************************
 LABEL *                                                                                                                                                                 
  (16 PROC) 64 bit serial version                                                        DATE: 03-Aug-23          TIME: 13:08:08  
 **********************************************************************************************************************************

 SHA1:             9738a14712571edd23541b6d7c4f3a3d766f8287
 **********************************************************************************************************************************

 Memory per process:       805 MW
 Total memory per node:   1074 MW
 Total GA space:           268 MW

 GA preallocation disabled
 GA check enabled

 Geometry recognized as XYZ


 Variable memory set to 805.3 MW

 SETTING BASIS          =    CC-PVDZ


 Recomputing integrals since basis changed


 Using spherical harmonics

 Library entry H      S cc-pVDZ              selected for orbital group  1
 Library entry H      P cc-pVDZ              selected for orbital group  1
 Library entry F      S cc-pVDZ              selected for orbital group  2
 Library entry F      P cc-pVDZ              selected for orbital group  2
 Library entry F      D cc-pVDZ              selected for orbital group  2


 PROGRAM * SEWARD (Integral evaluation for generally contracted gaussian basis sets)     Author: Roland Lindh, 1990

 Geometry written to block  1 of record 700


 Point group  C2v 



 ATOMIC COORDINATES

 NR  ATOM    CHARGE       X              Y              Z

   1  H       1.00    0.000000000    1.754616376    0.000000000
   2  H       1.00    1.519542005   -0.877307243    0.000000000
   3  H       1.00   -1.519542005   -0.877307243    0.000000000
   4  F       9.00    0.000000000   -2.464527899    0.000000000
   5  F       9.00   -2.134343613    1.232263950    0.000000000
   6  F       9.00    2.134343613    1.232263950    0.000000000

 Bond lengths in Bohr (Angstrom)

 1-5  2.197333546  1-6  2.197333546  2-4  2.197334139  2-6  2.197332846  3-4  2.197334139
     ( 1.162778837)     ( 1.162778837)     ( 1.162779151)     ( 1.162778467)     ( 1.162779151)

 3-5  2.197332846
     ( 1.162778467)

 Bond angles

  1-5-3   87.50413431   1-6-2   87.50413431   2-4-3   87.50409781   4-2-6  152.49589030

  4-3-5  152.49589030   5-1-6  152.49585297

 NUCLEAR CHARGE:                   30
 NUMBER OF PRIMITIVE AOS:         102
 NUMBER OF SYMMETRY AOS:           99
 NUMBER OF CONTRACTIONS:           57   (   24A1  +   18B1  +    9B2  +    6A2  )
 NUMBER OF INNER CORE ORBITALS:     0   (    0A1  +    0B1  +    0B2  +    0A2  )
 NUMBER OF OUTER CORE ORBITALS:     3   (    2A1  +    1B1  +    0B2  +    0A2  )
 NUMBER OF VALENCE ORBITALS:       15   (    7A1  +    5B1  +    2B2  +    1A2  )


 NUCLEAR REPULSION ENERGY   88.88794767

 Eigenvalues of metric

         1 0.193E-01 0.221E-01 0.561E-01 0.588E-01 0.106E+00 0.168E+00 0.201E+00 0.259E+00
         2 0.221E-01 0.561E-01 0.106E+00 0.146E+00 0.168E+00 0.259E+00 0.270E+00 0.360E+00
         3 0.184E+00 0.191E+00 0.670E+00 0.758E+00 0.100E+01 0.106E+01 0.111E+01 0.186E+01
         4 0.191E+00 0.758E+00 0.100E+01 0.100E+01 0.111E+01 0.186E+01


 Contracted 2-electron integrals neglected if value below      1.0D-11
 AO integral compression algorithm  1   Integral accuracy      1.0D-11

     2.359 MB (compressed) written to integral file ( 60.3%)


 NUMBER OF SORTED TWO-ELECTRON INTEGRALS:     381099.     BUFFER LENGTH:  32768
 NUMBER OF SEGMENTS:   1  SEGMENT LENGTH:     381099      RECORD LENGTH: 524288

 Memory used in sort:       0.94 MW

 SORT1 READ      536283. AND WROTE      368544. INTEGRALS IN      2 RECORDS. CPU TIME:     0.01 SEC, REAL TIME:     0.16 SEC
 SORT2 READ      368544. AND WROTE      381099. INTEGRALS IN      9 RECORDS. CPU TIME:     0.03 SEC, REAL TIME:     0.03 SEC

 FILE SIZES:   FILE 1:    32.5 MBYTE,  FILE 4:     8.5 MBYTE,   TOTAL:     41.0 MBYTE

 OPERATOR DM      FOR CENTER  0  COORDINATES:    0.000000    0.000000    0.000000


 **********************************************************************************************************************************
 DATASETS  * FILE   NREC   LENGTH (MB)   RECORD NAMES
              1      19       30.35       500      610      700      900      950      970     1000      129      960     1100   
                                          VAR    BASINP    GEOM    SYMINP    ZMAT    AOBASIS   BASIS     P2S    ABASIS      S 
                                         1400     1410     1200     1210     1080     1600     1650     1300     1700   
                                           T        V       H0       H01     AOSYM     SMH    MOLCAS    ERIS     OPER   

 PROGRAMS   *        TOTAL       INT
 CPU TIMES  *         0.69      0.55
 REAL TIME  *         1.83 SEC
 DISK USED  *        39.48 MB
 **********************************************************************************************************************************


 Program * Restricted Hartree-Fock

 Orbital guess generated from atomic densities. Full valence occupancy:    9   6   2   1

 Initial occupancy:   7   5   2   1

 NELEC=   30   SYM=1   MS2= 0   THRE=1.0D-08   THRD=3.2D-06   THRG=3.2D-06  HFMA2=F  DIIS_START=2   DIIS_MAX=10   DIIS_INCORE=F

 Level shifts:    0.00 (CLOSED)    0.00 (OPEN)    0.30 (GAP_MIN)

 ITER           ETOT              DE          GRAD        DDIFF     DIIS  NEXP   TIME(IT)  TIME(TOT)  DIAG
   1     -299.98593460    -299.98593460     0.00D+00     0.32D+00     0     0       0.00      0.01    start
   2     -300.02411232      -0.03817771     0.18D-01     0.30D-01     1     0       0.00      0.01    diag
   3     -300.03100441      -0.00689210     0.78D-02     0.98D-02     2     0       0.01      0.02    diag
   4     -300.03117017      -0.00016575     0.10D-02     0.13D-02     3     0       0.00      0.02    diag
   5     -300.03118003      -0.00000986     0.20D-03     0.36D-03     4     0       0.00      0.02    diag
   6     -300.03118063      -0.00000060     0.38D-04     0.88D-04     5     0       0.01      0.03    diag
   7     -300.03118064      -0.00000002     0.62D-05     0.17D-04     6     0       0.00      0.03    diag
   8     -300.03118064      -0.00000000     0.53D-06     0.13D-05     7     0       0.00      0.03    fixocc
   9     -300.03118064      -0.00000000     0.84D-07     0.14D-06     0     0       0.00      0.03    diag

 Final occupancy:   7   5   2   1

 !RHF STATE 1.1 Energy               -300.031180643753
  RHF One-electron energy            -597.435893349192
  RHF Two-electron energy             208.516765032724
  RHF Kinetic energy                  299.933221638661
  RHF Nuclear energy                   88.887947672715
  RHF Virial quotient                  -1.000326602717

 !RHF STATE 1.1 Dipole moment           0.00000000     0.00000221     0.00000000
 Dipole moment /Debye                   0.00000000     0.00000562     0.00000000

 Orbital energies:

           1.1          2.1          3.1          4.1          5.1          6.1          7.1          8.1          9.1
    -26.318699   -26.318668    -1.664677    -1.594092    -0.834289    -0.813733    -0.633204     0.234554     0.312876

           1.2          2.2          3.2          4.2          5.2          6.2          7.2
    -26.318699    -1.594092    -0.813733    -0.638340    -0.633204     0.312876     0.667258

           1.3          2.3          3.3          4.3
     -0.698190    -0.663780     1.164462     1.356702

           1.4          2.4          3.4
     -0.663780     1.356702     1.626680


 HOMO      7.1    -0.633204 =     -17.2303eV
 LUMO      8.1     0.234554 =       6.3825eV
 LUMO-HOMO         0.867758 =      23.6129eV

 Orbitals saved in record  2100.2


 **********************************************************************************************************************************
 DATASETS  * FILE   NREC   LENGTH (MB)   RECORD NAMES
              1      19       30.35       500      610      700      900      950      970     1000      129      960     1100   
                                          VAR    BASINP    GEOM    SYMINP    ZMAT    AOBASIS   BASIS     P2S    ABASIS      S 
                                         1400     1410     1200     1210     1080     1600     1650     1300     1700   
                                           T        V       H0       H01     AOSYM     SMH    MOLCAS    ERIS     OPER   

              2       4        0.48       700     1000      520     2100   
                                         GEOM     BASIS   MCVARS     RHF  

 PROGRAMS   *        TOTAL    HF-SCF       INT
 CPU TIMES  *         0.73      0.04      0.55
 REAL TIME  *         2.05 SEC
 DISK USED  *        39.48 MB
 **********************************************************************************************************************************


 PROGRAM * PAPT (Closed-shell)     Authors: C. Hampel, H.-J. Werner, 1991, P.J. Knowles, 2021


 Convergence thresholds:  THRVAR = 1.00D-08  THRDEN = 1.00D-06

 Number of core orbitals:           3 (   2   1   0   0 )
 Number of closed-shell orbitals:  12 (   5   4   2   1 )
 Number of external orbitals:      42 (  17  13   7   5 )

 Molecular orbitals read from record     2100.2  Type=RHF/CANONICAL  

 Number of N-1 electron functions:              12
 Number of N-2 electron functions:              78
 Number of singly external CSFs:               156
 Number of doubly external CSFs:             33480
 Total number of CSFs:                       33637

 Length of J-op  integral file:               0.00 MB
 Length of K-op  integral file:               0.13 MB

 Integral transformation finished. Total CPU:   0.01 sec, npass=  1  Memory used:   0.12 MW

 Reference energy:                   -300.03118064

                        CORR.ENERGY   TOTAL ENERGY   ENERGY CHANGE
 MP2:                   -0.64368098  -300.67486162    -0.64368098

 SCS-MP2 correlation energy:           -0.61971197   (PS=  1.200000  PT=  0.333333)
 SCS-MP2 total energy:               -300.65089261
 Iteration:   1     0.2652D+00
 Iteration:   2     0.8158D+00
 Iteration:   3     0.1261D+00
 Iteration:   4     0.9538D-01
 Iteration:   5     0.5390D-01
 Iteration:   6     0.8454D-02
 Iteration:   7     0.4608D+00
 Iteration:   8     0.3735D-02
 Iteration:   9     0.1348D-01
 Iteration:  10     0.1676D-02
 Iteration:  11     0.4141D-02
 Iteration:  12     0.9744D-03
 Iteration:  13     0.4400D-03
 Iteration:  14     0.8828D-02
 Iteration:  15     0.1990D-03
 Iteration:  16     0.1066D-02
 Iteration:  17     0.4905D-04
 PAPT operator written to  7000.1
 PAPT orbitals and eigenvalues written to  7000.2

 MP3(D):                -0.64175678  -300.67293743     0.00192420



 RESULTS
 =======

  Reference energy                   -300.031180643753
  MP3 singlet pair energy              -0.402507853143
  MP3 triplet pair energy              -0.239248929954
  MP3 correlation energy               -0.641756783097

 !MP3 total energy                   -300.672937426850

 Timing summary (sec):

 STEP                 CPU(USER)    SYS     CPU(TOT)    WALL
 Transformation          0.01      0.01      0.02      0.06
 CCSD iterations         1.11      0.02      1.13      0.20

 Program statistics:

 Available memory in ccsd:               805305785
 Min. memory needed in ccsd:                109567
 Max. memory used in ccsd:                  135262
 Max. memory used in cckext:                186686 ( 1 integral passes)



 **********************************************************************************************************************************
 DATASETS  * FILE   NREC   LENGTH (MB)   RECORD NAMES
              1      21       31.16       500      610      700      900      950      970     1000      129      960     1100   
                                          VAR    BASINP    GEOM    SYMINP    ZMAT    AOBASIS   BASIS     P2S    ABASIS      S 
                                         1400     1410     1200     1210     1080     1600     1650     1300     1700     1380   
                                           T        V       H0       H01     AOSYM     SMH    MOLCAS    ERIS     OPER     JKOP   
                                         7000   
                                        PAPT AO    

              2       5        0.60       700     1000      520     2100     7000   
                                         GEOM     BASIS   MCVARS     RHF     PAPT   

 PROGRAMS   *        TOTAL      PAPT    HF-SCF       INT
 CPU TIMES  *         0.92      0.18      0.04      0.55
 REAL TIME  *         2.35 SEC
 DISK USED  *        39.48 MB
 **********************************************************************************************************************************


 PROGRAM * MP2 (Closed-shell)     Authors: C. Hampel, H.-J. Werner, 1991, M. Deegan, P.J. Knowles, 1992


 Convergence thresholds:  THRVAR = 1.00D-08  THRDEN = 1.00D-06

 Number of core orbitals:           3 (   2   1   0   0 )
 Number of closed-shell orbitals:  12 (   5   4   2   1 )
 Number of external orbitals:      42 (  17  13   7   5 )

 Molecular orbitals read from record     7000.2  Type=PAPT/CANONICAL (state 1.1)

 Number of N-1 electron functions:              12
 Number of N-2 electron functions:              78
 Number of singly external CSFs:               156
 Number of doubly external CSFs:             33480
 Total number of CSFs:                       33637

 Length of J-op  integral file:               0.00 MB
 Length of K-op  integral file:               0.13 MB

 Integral transformation finished. Total CPU:   0.01 sec, npass=  1  Memory used:   0.12 MW
 Orbital energies read from record       7000.2  Type=PAPT/CANONICAL (state 1.1)

 Memory needed for MP2:                      0.01 MW

 SCS-MP2 correlation energy:           -0.620680668033   (PS=  1.200000  PT=  0.333333)
 SCS-MP2 total energy:               -300.651861311786


  Reference energy                   -300.031180643753
  MP2 singlet pair energy              -0.380820876234
  MP2 triplet pair energy              -0.263082240888
  MP2 correlation energy               -0.643903117122

 !MP2 total energy                   -300.675083760874


 **********************************************************************************************************************************
 DATASETS  * FILE   NREC   LENGTH (MB)   RECORD NAMES
              1      21       31.16       500      610      700      900      950      970     1000      129      960     1100   
                                          VAR    BASINP    GEOM    SYMINP    ZMAT    AOBASIS   BASIS     P2S    ABASIS      S 
                                         1400     1410     1200     1210     1080     1600     1650     1300     1700     1380   
                                           T        V       H0       H01     AOSYM     SMH    MOLCAS    ERIS     OPER     JKOP   
                                         7000   
                                        PAPT AO    

              2       5        0.60       700     1000      520     2100     7000   
                                         GEOM     BASIS   MCVARS     RHF     PAPT   

 PROGRAMS   *        TOTAL       MP2      PAPT    HF-SCF       INT
 CPU TIMES  *         0.99      0.08      0.18      0.04      0.55
 REAL TIME  *         2.48 SEC
 DISK USED  *        39.48 MB
 **********************************************************************************************************************************

 Dump information in style XML to xml output                                                                      

 Orbitals will not be exported.

 **********************************************************************************************************************************

 MP2/cc-pVDZ energy=   -300.675083760874

             MP2            PAPT          HF-SCF
   -300.67508376   -300.67293743   -300.03118064
 **********************************************************************************************************************************
 Molpro calculation terminated
