
 Working directory              : /home/jovyan/scratch/molpro.AmbczsZte4/
 Global scratch directory       : /home/jovyan/scratch/molpro.AmbczsZte4/
 Wavefunction directory         : /home/jovyan/wfu/
 Main file repository           : /home/jovyan/scratch/molpro.AmbczsZte4/

 id        : cardiff

 Nodes                nprocs
 jupyter-c-2efrancisan    1
 GA implementation: MPI file
 GA implementation (serial work in mppx): MPI file

 Using customized tuning parameters: mindgm=1; mindgv=20; mindgc=4; mindgr=1; noblas=0; minvec=7
 default implementation of scratch files=df  


 Variables initialized (1031), CPU time= 0.01 sec
 
 
 
 geometry={
            7
     C         -0.70348642     -0.15745798     -0.00001606
     O          0.11728813      0.96008129      0.00007194
     H         -1.75741170      0.15182813     -0.00862109
     H         -0.54634194     -0.80376173     -0.87808291
     H         -0.55866648     -0.79545365      0.88637925
     H          1.10509166      0.60322056      0.00026094
     F          2.34352676      0.04154336      0.00000794
 }
 basis=cc-pVDZ
 angstrom
 charge=-1
 
 hf; ccsd
 
 
 
 {put,xml;noorbitals,nobasis}
 Commands initialized (841), CPU time= 0.01 sec, 704 directives.
 Default parameters read. Elapsed time= 0.08 sec

 Checking input...
 Passed
1


                                         ***  PROGRAM SYSTEM MOLPRO  ***
                                       Copyright, TTI GmbH Stuttgart, 2015
                                    Version 2023.1 linked Mon Jun  5 13:27:10 2023


 **********************************************************************************************************************************
 LABEL *                                                                                                                                                                 
  (16 PROC) 64 bit serial version                                                        DATE: 02-Aug-23          TIME: 15:50:43  
 **********************************************************************************************************************************

 SHA1:             9738a14712571edd23541b6d7c4f3a3d766f8287
 **********************************************************************************************************************************

 Memory per process:       805 MW
 Total memory per node:   1074 MW
 Total GA space:           268 MW

 GA preallocation disabled
 GA check enabled

 Geometry recognized as XYZ


 Variable memory set to 805.3 MW

 SETTING BASIS          =    CC-PVDZ
 SETTING CHARGE         =        -1.00000000                                  


 Recomputing integrals since basis changed


 Using spherical harmonics

 Library entry C      S cc-pVDZ              selected for orbital group  1
 Library entry C      P cc-pVDZ              selected for orbital group  1
 Library entry C      D cc-pVDZ              selected for orbital group  1
 Library entry O      S cc-pVDZ              selected for orbital group  2
 Library entry O      P cc-pVDZ              selected for orbital group  2
 Library entry O      D cc-pVDZ              selected for orbital group  2
 Library entry H      S cc-pVDZ              selected for orbital group  3
 Library entry H      P cc-pVDZ              selected for orbital group  3
 Library entry F      S cc-pVDZ              selected for orbital group  4
 Library entry F      P cc-pVDZ              selected for orbital group  4
 Library entry F      D cc-pVDZ              selected for orbital group  4


 PROGRAM * SEWARD (Integral evaluation for generally contracted gaussian basis sets)     Author: Roland Lindh, 1990

 Geometry written to block  1 of record 700


 Point group  C1  



 ATOMIC COORDINATES

 NR  ATOM    CHARGE       X              Y              Z

   1  C       6.00   -1.329396666   -0.297552458   -0.000030349
   2  O       8.00    0.221642443    1.814290695    0.000135947
   3  H       1.00   -3.321026801    0.286913584   -0.016291499
   4  H       1.00   -1.032436637   -1.518889539   -1.659336215
   5  H       1.00   -1.055726642   -1.503189543    1.675014025
   6  H       1.00    2.088320580    1.139921651    0.000493105
   7  F       9.00    4.428623742    0.078505573    0.000015004

 Bond lengths in Bohr (Angstrom)

 1-2  2.620229733  1-3  2.075681954  1-4  2.081620878  1-5  2.081881293  2-6  1.984757164
     ( 1.386565862)     ( 1.098403587)     ( 1.101546330)     ( 1.101684136)     ( 1.050288261)

 Bond angles

  1-2-6  106.43223859   2-1-3  109.93982776   2-1-4  112.86058657   2-1-5  112.88507547

  3-1-4  107.20821913   3-1-5  107.18738980   4-1-5  106.42857108

 NUCLEAR CHARGE:                   27
 NUMBER OF PRIMITIVE AOS:         109
 NUMBER OF SYMMETRY AOS:          106
 NUMBER OF CONTRACTIONS:           62   (   62A   )
 NUMBER OF INNER CORE ORBITALS:     0   (    0A   )
 NUMBER OF OUTER CORE ORBITALS:     3   (    3A   )
 NUMBER OF VALENCE ORBITALS:       16   (   16A   )


 NUCLEAR REPULSION ENERGY   73.17392355


 Eigenvalues of metric

         1 0.967E-02 0.171E-01 0.283E-01 0.378E-01 0.379E-01 0.416E-01 0.485E-01 0.492E-01


 Contracted 2-electron integrals neglected if value below      1.0D-11
 AO integral compression algorithm  1   Integral accuracy      1.0D-11

     8.651 MB (compressed) written to integral file ( 48.7%)


 NUMBER OF SORTED TWO-ELECTRON INTEGRALS:    1908081.     BUFFER LENGTH:  32768
 NUMBER OF SEGMENTS:   1  SEGMENT LENGTH:    1908081      RECORD LENGTH: 524288

 Memory used in sort:       2.47 MW

 SORT1 READ     2236071. AND WROTE     1811481. INTEGRALS IN      6 RECORDS. CPU TIME:     0.03 SEC, REAL TIME:     0.10 SEC
 SORT2 READ     1811481. AND WROTE     1908081. INTEGRALS IN     33 RECORDS. CPU TIME:     0.08 SEC, REAL TIME:     0.08 SEC

 FILE SIZES:   FILE 1:    38.9 MBYTE,  FILE 4:    25.2 MBYTE,   TOTAL:     64.1 MBYTE

 OPERATOR DM      FOR CENTER  0  COORDINATES:    0.000000    0.000000    0.000000


 **********************************************************************************************************************************
 DATASETS  * FILE   NREC   LENGTH (MB)   RECORD NAMES
              1      19       35.63       500      610      700      900      950      970     1000      129      960     1100   
                                          VAR    BASINP    GEOM    SYMINP    ZMAT    AOBASIS   BASIS     P2S    ABASIS      S 
                                         1400     1410     1200     1210     1080     1600     1650     1300     1700   
                                           T        V       H0       H01     AOSYM     SMH    MOLCAS    ERIS     OPER   

 PROGRAMS   *        TOTAL       INT
 CPU TIMES  *         0.88      0.75
 REAL TIME  *         3.43 SEC
 DISK USED  *        61.57 MB
 **********************************************************************************************************************************


 Program * Restricted Hartree-Fock

 Orbital guess generated from atomic densities. Full valence occupancy:   19

 Initial occupancy:  14

 NELEC=   28   SYM=1   MS2= 0   THRE=1.0D-08   THRD=3.2D-06   THRG=3.2D-06  HFMA2=F  DIIS_START=2   DIIS_MAX=10   DIIS_INCORE=F

 Level shifts:    0.00 (CLOSED)    0.00 (OPEN)    0.30 (GAP_MIN)

 ITER           ETOT              DE          GRAD        DDIFF     DIIS  NEXP   TIME(IT)  TIME(TOT)  DIAG
   1     -214.39489828    -214.39489828     0.00D+00     0.16D+00     0     0       0.02      0.04    start
   2     -214.45844582      -0.06354754     0.13D-01     0.25D-01     1     0       0.02      0.06    diag
   3     -214.48050427      -0.02205845     0.73D-02     0.86D-02     2     0       0.02      0.08    diag
   4     -214.48106575      -0.00056148     0.66D-03     0.20D-02     3     0       0.03      0.11    diag
   5     -214.48109564      -0.00002989     0.14D-03     0.38D-03     4     0       0.02      0.13    diag
   6     -214.48109870      -0.00000306     0.56D-04     0.13D-03     5     0       0.02      0.15    diag
   7     -214.48109907      -0.00000037     0.17D-04     0.40D-04     6     0       0.03      0.18    diag
   8     -214.48109910      -0.00000003     0.56D-05     0.11D-04     7     0       0.02      0.20    fixocc
   9     -214.48109911      -0.00000000     0.14D-05     0.44D-05     8     0       0.02      0.22    diag
  10     -214.48109911      -0.00000000     0.18D-06     0.54D-06     9     0       0.03      0.25    diag/orth
  11     -214.48109911      -0.00000000     0.37D-07     0.76D-07     0     0       0.02      0.27    diag

 Final occupancy:  14

 !RHF STATE 1.1 Energy               -214.481099105714
  RHF One-electron energy            -450.291074901882
  RHF Two-electron energy             162.636052242627
  RHF Kinetic energy                  214.559674201583
  RHF Nuclear energy                   73.173923553542
  RHF Virial quotient                  -0.999633784418

 !RHF STATE 1.1 Dipole moment          -2.91327810    -0.82137437    -0.00058965
 Dipole moment /Debye                  -7.40481434    -2.08772541    -0.00149875

 Orbital energies:

           1.1          2.1          3.1          4.1          5.1          6.1          7.1          8.1          9.1         10.1
    -25.844526   -20.290085   -11.084503    -1.131287    -1.090972    -0.711669    -0.459470    -0.408844    -0.375910    -0.292875

          11.1         12.1         13.1         14.1         15.1         16.1
     -0.219368    -0.213872    -0.201014    -0.185091     0.360284     0.423829


 HOMO     14.1    -0.185091 =      -5.0366eV
 LUMO     15.1     0.360284 =       9.8038eV
 LUMO-HOMO         0.545375 =      14.8404eV

 Orbitals saved in record  2100.2


 **********************************************************************************************************************************
 DATASETS  * FILE   NREC   LENGTH (MB)   RECORD NAMES
              1      19       35.63       500      610      700      900      950      970     1000      129      960     1100   
                                          VAR    BASINP    GEOM    SYMINP    ZMAT    AOBASIS   BASIS     P2S    ABASIS      S 
                                         1400     1410     1200     1210     1080     1600     1650     1300     1700   
                                           T        V       H0       H01     AOSYM     SMH    MOLCAS    ERIS     OPER   

              2       4        0.54       700     1000      520     2100   
                                         GEOM     BASIS   MCVARS     RHF  

 PROGRAMS   *        TOTAL    HF-SCF       INT
 CPU TIMES  *         1.15      0.27      0.75
 REAL TIME  *         3.75 SEC
 DISK USED  *        61.57 MB
 **********************************************************************************************************************************


 PROGRAM * CCSD (Closed-shell coupled cluster)     Authors: C. Hampel, H.-J. Werner, 1991, M. Deegan, P.J. Knowles, 1992


 Convergence thresholds:  THRVAR = 1.00D-08  THRDEN = 1.00D-06

 Number of core orbitals:           3 (   3 )
 Number of closed-shell orbitals:  11 (  11 )
 Number of external orbitals:      48 (  48 )

 Molecular orbitals read from record     2100.2  Type=RHF/CANONICAL  

 Number of N-1 electron functions:              11
 Number of N-2 electron functions:              66
 Number of singly external CSFs:               528
 Number of doubly external CSFs:            139656
 Total number of CSFs:                      140185

 Length of J-op  integral file:               0.00 MB
 Length of K-op  integral file:               0.33 MB
 Length of 3-ext integral record:             0.00 MB

 Integral transformation finished. Total CPU:   0.11 sec, npass=  1  Memory used:   2.00 MW

 Reference energy:                   -214.48109911

 MP2 singlet pair energy:              -0.33611536
 MP2 triplet pair energy:              -0.20695495
 MP2 correlation energy:               -0.54307031
 MP2 total energy:                   -215.02416942

 SCS-MP2 correlation energy:           -0.53211040   (PS=  1.200000  PT=  0.333333)
 SCS-MP2 total energy:               -215.01320951

 ITER.      SQ.NORM     CORR.ENERGY   TOTAL ENERGY   ENERGY CHANGE        DEN1      VAR(S)    VAR(P)  DIIS     TIME  TIME/IT
   1      1.14729404    -0.56594696  -215.04704606    -0.02287664    -0.01116757  0.19D-02  0.22D-02  1  1     1.90     0.36
   2      1.15746542    -0.56810429  -215.04920340    -0.00215734    -0.01153695  0.25D-04  0.29D-03  2  2     2.24     0.36
   3      1.16066242    -0.56834295  -215.04944205    -0.00023865    -0.00195892  0.42D-04  0.12D-04  3  3     2.57     0.36
   4      1.16167993    -0.56833086  -215.04942997     0.00001209    -0.00045296  0.38D-05  0.19D-05  4  4     2.90     0.36
   5      1.16205631    -0.56832031  -215.04941941     0.00001055    -0.00010706  0.95D-06  0.25D-06  5  5     3.24     0.36
   6      1.16217890    -0.56831589  -215.04941500     0.00000442    -0.00001711  0.16D-06  0.46D-07  6  6     3.57     0.36
   7      1.16221768    -0.56831433  -215.04941344     0.00000156     0.00000008  0.17D-07  0.89D-08  6  1     3.90     0.36
   8      1.16223322    -0.56831338  -215.04941248     0.00000095    -0.00000304  0.27D-08  0.15D-08  6  2     4.24     0.36
   9      1.16223584    -0.56831346  -215.04941256    -0.00000008     0.00000084  0.44D-09  0.20D-09  6  3     4.57     0.36

 Norm of t1 vector:      0.06525094      S-energy:    -0.00000045      T1 diagnostic:  0.00983695
                                                                       D1 diagnostic:  0.02742629
                                                                       D2 diagnostic:  0.13495686 (internal)


 RESULTS
 =======

  Reference energy                   -214.481099105714
  CCSD singlet pair energy             -0.382303218049
  CCSD triplet pair energy             -0.186009791257
  CCSD correlation energy              -0.568313459179

 !CCSD total energy                  -215.049412564892

 Timing summary (sec):

 STEP                 CPU(USER)    SYS     CPU(TOT)    WALL
 Transformation          0.12      0.02      0.14      0.17
 CCSD iterations         4.47      0.18      4.65      3.26

 Program statistics:

 Available memory in ccsd:               805305870
 Min. memory needed in ccsd:                431957
 Max. memory used in ccsd:                  542265
 Max. memory used in cckext:                580037 ( 9 integral passes)



 **********************************************************************************************************************************
 DATASETS  * FILE   NREC   LENGTH (MB)   RECORD NAMES
              1      20       43.35       500      610      700      900      950      970     1000      129      960     1100   
                                          VAR    BASINP    GEOM    SYMINP    ZMAT    AOBASIS   BASIS     P2S    ABASIS      S 
                                         1400     1410     1200     1210     1080     1600     1650     1300     1700     1380   
                                           T        V       H0       H01     AOSYM     SMH    MOLCAS    ERIS     OPER     JKOP   

              2       4        0.54       700     1000      520     2100   
                                         GEOM     BASIS   MCVARS     RHF  

 PROGRAMS   *        TOTAL      CCSD    HF-SCF       INT
 CPU TIMES  *         4.32      3.17      0.27      0.75
 REAL TIME  *         7.22 SEC
 DISK USED  *        68.16 MB
 **********************************************************************************************************************************

 Dump information in style XML to xml output                                                                      

 Orbitals will not be exported.

 **********************************************************************************************************************************

 CCSD/cc-pVDZ energy=   -215.049412564892

            CCSD          HF-SCF
   -215.04941256   -214.48109911
 **********************************************************************************************************************************
 Molpro calculation terminated
