
 Working directory              : /home/jovyan/scratch/molpro.IeLFENNJUZ/
 Global scratch directory       : /home/jovyan/scratch/molpro.IeLFENNJUZ/
 Wavefunction directory         : /home/jovyan/wfu/
 Main file repository           : /home/jovyan/scratch/molpro.IeLFENNJUZ/

 id        : cardiff

 Nodes                nprocs
 jupyter-c-2efrancisan    1
 GA implementation: MPI file
 GA implementation (serial work in mppx): MPI file

 Using customized tuning parameters: mindgm=1; mindgv=20; mindgc=4; mindgr=1; noblas=0; minvec=7
 default implementation of scratch files=df  


 Variables initialized (1031), CPU time= 0.01 sec
 
 
 
 geometry={
 6
  C 0.000000 0.509558 0.000000
  H 0.037758 1.595479 0.000000
  O -1.099586 -0.147769 0.000000
  H 1.969129 -0.087220 0.000000
  H -0.131827 -1.064473 0.000000
  N 0.988804 -0.331283 0.000000
 }
 basis=cc-pVDZ
 angstrom
 
 
 hf
 
 
 
 {put,xml;noorbitals,nobasis}
 Commands initialized (841), CPU time= 0.01 sec, 704 directives.
 Default parameters read. Elapsed time= 0.09 sec

 Checking input...
 Passed
1


                                         ***  PROGRAM SYSTEM MOLPRO  ***
                                       Copyright, TTI GmbH Stuttgart, 2015
                                    Version 2023.1 linked Mon Jun  5 13:27:10 2023


 **********************************************************************************************************************************
 LABEL *                                                                                                                                                                 
  (16 PROC) 64 bit serial version                                                        DATE: 02-Aug-23          TIME: 15:31:28  
 **********************************************************************************************************************************

 SHA1:             9738a14712571edd23541b6d7c4f3a3d766f8287
 **********************************************************************************************************************************

 Memory per process:       805 MW
 Total memory per node:   1074 MW
 Total GA space:           268 MW

 GA preallocation disabled
 GA check enabled

 Geometry recognized as XYZ


 Variable memory set to 805.3 MW

 SETTING BASIS          =    CC-PVDZ


 Recomputing integrals since basis changed


 Using spherical harmonics

 Library entry C      S cc-pVDZ              selected for orbital group  1
 Library entry C      P cc-pVDZ              selected for orbital group  1
 Library entry C      D cc-pVDZ              selected for orbital group  1
 Library entry H      S cc-pVDZ              selected for orbital group  2
 Library entry H      P cc-pVDZ              selected for orbital group  2
 Library entry O      S cc-pVDZ              selected for orbital group  3
 Library entry O      P cc-pVDZ              selected for orbital group  3
 Library entry O      D cc-pVDZ              selected for orbital group  3
 Library entry N      S cc-pVDZ              selected for orbital group  5
 Library entry N      P cc-pVDZ              selected for orbital group  5
 Library entry N      D cc-pVDZ              selected for orbital group  5


 PROGRAM * SEWARD (Integral evaluation for generally contracted gaussian basis sets)     Author: Roland Lindh, 1990

 Geometry written to block  1 of record 700


 Point group  Cs  



 ATOMIC COORDINATES

 NR  ATOM    CHARGE       X              Y              Z

   1  C       6.00    0.000000000    0.962925065    0.000000000
   2  H       1.00    0.071352279    3.015018348    0.000000000
   3  O       8.00   -2.077916390   -0.279242940    0.000000000
   4  H       1.00    3.721114514   -0.164821913    0.000000000
   5  H       1.00   -0.249116926   -2.011562437    0.000000000
   6  N       7.00    1.868568751   -0.626034140    0.000000000

 Bond lengths in Bohr (Angstrom)

 1-2  2.053333385  1-3  2.420891959  1-6  2.452822972  3-5  2.519015348  4-6  1.909094687
     ( 1.086577234)     ( 1.281080855)     ( 1.297978019)     ( 1.333005516)     ( 1.010249402)

 5-6  2.530668151
     ( 1.339171914)

 Bond angles

  1-3-5   74.31885873   1-6-4  125.64321780   1-6-5   73.57189641   2-1-3  122.86217045

  2-1-6  128.38516423   3-1-6  108.75266532   3-5-6  103.35657954   4-6-5  160.78488579

 NUCLEAR CHARGE:                   24
 NUMBER OF PRIMITIVE AOS:         102
 NUMBER OF SYMMETRY AOS:           99
 NUMBER OF CONTRACTIONS:           57   (   42A'  +   15A"  )
 NUMBER OF INNER CORE ORBITALS:     0   (    0A'  +    0A"  )
 NUMBER OF OUTER CORE ORBITALS:     3   (    3A'  +    0A"  )
 NUMBER OF VALENCE ORBITALS:       15   (   12A'  +    3A"  )


 NUCLEAR REPULSION ENERGY   72.94036840

 Eigenvalues of metric

         1 0.514E-02 0.132E-01 0.166E-01 0.281E-01 0.339E-01 0.394E-01 0.518E-01 0.659E-01
         2 0.110E+00 0.169E+00 0.192E+00 0.374E+00 0.452E+00 0.523E+00 0.576E+00 0.793E+00


 Contracted 2-electron integrals neglected if value below      1.0D-11
 AO integral compression algorithm  1   Integral accuracy      1.0D-11

     4.194 MB (compressed) written to integral file ( 63.1%)


 NUMBER OF SORTED TWO-ELECTRON INTEGRALS:     740496.     BUFFER LENGTH:  32768
 NUMBER OF SEGMENTS:   1  SEGMENT LENGTH:     740496      RECORD LENGTH: 524288

 Memory used in sort:       1.30 MW

 SORT1 READ      875140. AND WROTE      732819. INTEGRALS IN      3 RECORDS. CPU TIME:     0.02 SEC, REAL TIME:     0.11 SEC
 SORT2 READ      732819. AND WROTE      740496. INTEGRALS IN     16 RECORDS. CPU TIME:     0.04 SEC, REAL TIME:     0.06 SEC

 FILE SIZES:   FILE 1:    34.4 MBYTE,  FILE 4:    12.6 MBYTE,   TOTAL:     47.0 MBYTE

 OPERATOR DM      FOR CENTER  0  COORDINATES:    0.000000    0.000000    0.000000


 **********************************************************************************************************************************
 DATASETS  * FILE   NREC   LENGTH (MB)   RECORD NAMES
              1      19       32.04       500      610      700      900      950      970     1000      129      960     1100   
                                          VAR    BASINP    GEOM    SYMINP    ZMAT    AOBASIS   BASIS     P2S    ABASIS      S 
                                         1400     1410     1200     1210     1080     1600     1650     1300     1700   
                                           T        V       H0       H01     AOSYM     SMH    MOLCAS    ERIS     OPER   

 PROGRAMS   *        TOTAL       INT
 CPU TIMES  *         0.83      0.70
 REAL TIME  *         1.98 SEC
 DISK USED  *        45.25 MB
 **********************************************************************************************************************************


 Program * Restricted Hartree-Fock

 Orbital guess generated from atomic densities. Full valence occupancy:   15   3

 Initial occupancy:  10   2

 NELEC=   24   SYM=1   MS2= 0   THRE=1.0D-08   THRD=3.2D-06   THRG=3.2D-06  HFMA2=F  DIIS_START=2   DIIS_MAX=10   DIIS_INCORE=F

 Level shifts:    0.00 (CLOSED)    0.00 (OPEN)    0.30 (GAP_MIN)

 ITER           ETOT              DE          GRAD        DDIFF     DIIS  NEXP   TIME(IT)  TIME(TOT)  DIAG
   1     -168.79384014    -168.79384014     0.00D+00     0.20D+00     0     0       0.01      0.01    start
   2     -168.83035492      -0.03651478     0.14D-01     0.31D-01     1     0       0.01      0.02    diag
   3     -168.85058693      -0.02023201     0.89D-02     0.12D-01     2     0       0.01      0.03    diag
   4     -168.85139220      -0.00080527     0.15D-02     0.27D-02     3     0       0.00      0.03    diag
   5     -168.85154998      -0.00015778     0.65D-03     0.12D-02     4     0       0.01      0.04    diag
   6     -168.85157074      -0.00002076     0.15D-03     0.39D-03     5     0       0.01      0.05    diag
   7     -168.85157344      -0.00000270     0.52D-04     0.17D-03     6     0       0.00      0.05    diag
   8     -168.85157357      -0.00000013     0.11D-04     0.35D-04     7     0       0.01      0.06    fixocc
   9     -168.85157359      -0.00000001     0.36D-05     0.95D-05     8     0       0.01      0.07    diag
  10     -168.85157359      -0.00000000     0.16D-05     0.65D-05     9     0       0.01      0.08    diag/orth
  11     -168.85157359      -0.00000000     0.61D-06     0.27D-05     9     0       0.00      0.08    diag
  12     -168.85157359      -0.00000000     0.16D-06     0.35D-06     0     0       0.01      0.09    diag

 Final occupancy:  10   2

 !RHF STATE 1.1 Energy               -168.851573591381
  RHF One-electron energy            -375.068473625245
  RHF Two-electron energy             133.276531636003
  RHF Kinetic energy                  168.668290494717
  RHF Nuclear energy                   72.940368397861
  RHF Virial quotient                  -1.001086648214

 !RHF STATE 1.1 Dipole moment           1.01935802     0.62139586     0.00000000
 Dipole moment /Debye                   2.59094965     1.57943073     0.00000000

 Orbital energies:

           1.1          2.1          3.1          4.1          5.1          6.1          7.1          8.1          9.1         10.1
    -20.548091   -15.565965   -11.364638    -1.411149    -1.179171    -0.832673    -0.776188    -0.618470    -0.532062    -0.451015

          11.1         12.1
      0.187311     0.198375

           1.2          2.2          3.2          4.2
     -0.580234    -0.398050     0.175381     0.667110


 HOMO      2.2    -0.398050 =     -10.8315eV
 LUMO      3.2     0.175381 =       4.7724eV
 LUMO-HOMO         0.573431 =      15.6038eV

 Orbitals saved in record  2100.2


 **********************************************************************************************************************************
 DATASETS  * FILE   NREC   LENGTH (MB)   RECORD NAMES
              1      19       32.04       500      610      700      900      950      970     1000      129      960     1100   
                                          VAR    BASINP    GEOM    SYMINP    ZMAT    AOBASIS   BASIS     P2S    ABASIS      S 
                                         1400     1410     1200     1210     1080     1600     1650     1300     1700   
                                           T        V       H0       H01     AOSYM     SMH    MOLCAS    ERIS     OPER   

              2       4        0.49       700     1000      520     2100   
                                         GEOM     BASIS   MCVARS     RHF  

 PROGRAMS   *        TOTAL    HF-SCF       INT
 CPU TIMES  *         0.93      0.10      0.70
 REAL TIME  *         2.19 SEC
 DISK USED  *        45.25 MB
 **********************************************************************************************************************************

 Dump information in style XML to xml output                                                                      

 Orbitals will not be exported.

 **********************************************************************************************************************************

 HF/cc-pVDZ energy=   -168.851573591381

          HF-SCF
   -168.85157359
 **********************************************************************************************************************************
 Molpro calculation terminated
