
 Working directory              : /home/jovyan/scratch/molpro.QWmMok4Dvd/
 Global scratch directory       : /home/jovyan/scratch/molpro.QWmMok4Dvd/
 Wavefunction directory         : /home/jovyan/wfu/
 Main file repository           : /home/jovyan/scratch/molpro.QWmMok4Dvd/

 id        : cardiff

 Nodes                nprocs
 jupyter-c-2efrancisan    1
 GA implementation: MPI file
 GA implementation (serial work in mppx): MPI file

 Using customized tuning parameters: mindgm=1; mindgv=20; mindgc=4; mindgr=1; noblas=0; minvec=7
 default implementation of scratch files=df  


 Variables initialized (1031), CPU time= 0.01 sec
 
 
 
 geometry={
 7
    C   -0.02390885627557     -0.05302641663315     -0.10745866578343
    N   0.00092066825824      0.00365468344940      1.44477708016972
    H   0.94208618779814     -0.01259041963198      1.82514474753541
    H   -0.46202504306172      0.82039651080639      1.83220555804372
    H   -0.47773812151175     -0.80605899270518      1.81564860500214
    H   -0.49462389264234      0.88965947573447     -0.38874381678550
    H   1.02864905743500      0.04713015898005     -0.37957750818206
 }
 basis=cc-pVTZ
 angstrom
 
 
 hf; ccsd
 
 
 
 {put,xml;noorbitals,nobasis}
 Commands initialized (841), CPU time= 0.01 sec, 704 directives.
 Default parameters read. Elapsed time= 0.08 sec

 Checking input...
 Passed
1


                                         ***  PROGRAM SYSTEM MOLPRO  ***
                                       Copyright, TTI GmbH Stuttgart, 2015
                                    Version 2023.1 linked Mon Jun  5 13:27:10 2023


 **********************************************************************************************************************************
 LABEL *                                                                                                                                                                 
  (16 PROC) 64 bit serial version                                                        DATE: 02-Aug-23          TIME: 15:46:40  
 **********************************************************************************************************************************

 SHA1:             9738a14712571edd23541b6d7c4f3a3d766f8287
 **********************************************************************************************************************************

 Memory per process:       805 MW
 Total memory per node:   1074 MW
 Total GA space:           268 MW

 GA preallocation disabled
 GA check enabled

 Geometry recognized as XYZ


 Variable memory set to 805.3 MW

 SETTING BASIS          =    CC-PVTZ


 Recomputing integrals since basis changed


 Using spherical harmonics

 Library entry C      S cc-pVTZ              selected for orbital group  1
 Library entry C      P cc-pVTZ              selected for orbital group  1
 Library entry C      D cc-pVTZ              selected for orbital group  1
 Library entry C      F cc-pVTZ              selected for orbital group  1
 Library entry N      S cc-pVTZ              selected for orbital group  2
 Library entry N      P cc-pVTZ              selected for orbital group  2
 Library entry N      D cc-pVTZ              selected for orbital group  2
 Library entry N      F cc-pVTZ              selected for orbital group  2
 Library entry H      S cc-pVTZ              selected for orbital group  3
 Library entry H      P cc-pVTZ              selected for orbital group  3
 Library entry H      D cc-pVTZ              selected for orbital group  3


 PROGRAM * SEWARD (Integral evaluation for generally contracted gaussian basis sets)     Author: Roland Lindh, 1990

 Geometry written to block  1 of record 700


 Point group  C1  



 ATOMIC COORDINATES

 NR  ATOM    CHARGE       X              Y              Z

   1  C       6.00   -0.045181190   -0.100205405   -0.203067448
   2  N       7.00    0.001739811    0.006906351    2.730232993
   3  H       1.00    1.780284881   -0.023792445    3.449023711
   4  H       1.00   -0.873100794    1.550324719    3.462366709
   5  H       1.00   -0.902794209   -1.523230737    3.431078602
   6  H       1.00   -0.934703692    1.681212753   -0.734619346
   7  H       1.00    1.943864997    0.089063093   -0.717297534

 Bond lengths in Bohr (Angstrom)

 1-2  2.935630424  1-6  2.060885333  1-7  2.063143204  2-3  1.918547648  2-4  1.919246238
     ( 1.553468720)     ( 1.090573552)     ( 1.091768366)     ( 1.015251693)     ( 1.015621371)

 2-5  1.910676809
     ( 1.011086625)

 Bond angles

  1-2-3  112.86675045   1-2-4  113.77981822   1-2-5  109.25221902   2-1-6  103.47841796

  2-1-7  103.31424331   3-2-4  107.00834166   3-2-5  106.77565637   4-2-5  106.75608785

  6-1-7  105.81521240

 NUCLEAR CHARGE:                   18
 NUMBER OF PRIMITIVE AOS:         179
 NUMBER OF SYMMETRY AOS:          164
 NUMBER OF CONTRACTIONS:          130   (  130A   )
 NUMBER OF INNER CORE ORBITALS:     0   (    0A   )
 NUMBER OF OUTER CORE ORBITALS:     2   (    2A   )
 NUMBER OF VALENCE ORBITALS:       13   (   13A   )


 NUCLEAR REPULSION ENERGY   41.57132300

 Eigenvalues of metric

         1 0.105E-02 0.158E-02 0.194E-02 0.237E-02 0.264E-02 0.296E-02 0.440E-02 0.589E-02


 Contracted 2-electron integrals neglected if value below      1.0D-11
 AO integral compression algorithm  1   Integral accuracy      1.0D-11

     170.394 MB (compressed) written to integral file ( 51.6%)


 NUMBER OF SORTED TWO-ELECTRON INTEGRALS:   36256870.     BUFFER LENGTH:  32768
 NUMBER OF SEGMENTS:   3  SEGMENT LENGTH:   15998004      RECORD LENGTH: 524288

 Memory used in sort:      16.56 MW

 SORT1 READ    41222595. AND WROTE    35950917. INTEGRALS IN    105 RECORDS. CPU TIME:     0.47 SEC, REAL TIME:     1.13 SEC
 SORT2 READ    35950917. AND WROTE    36256870. INTEGRALS IN    650 RECORDS. CPU TIME:     0.74 SEC, REAL TIME:     1.25 SEC

 FILE SIZES:   FILE 1:   201.1 MBYTE,  FILE 4:   440.5 MBYTE,   TOTAL:    641.6 MBYTE

 OPERATOR DM      FOR CENTER  0  COORDINATES:    0.000000    0.000000    0.000000


 **********************************************************************************************************************************
 DATASETS  * FILE   NREC   LENGTH (MB)   RECORD NAMES
              1      19      174.70       500      610      700      900      950      970     1000      129      960     1100   
                                          VAR    BASINP    GEOM    SYMINP    ZMAT    AOBASIS   BASIS     P2S    ABASIS      S 
                                         1400     1410     1200     1210     1080     1600     1650     1300     1700   
                                           T        V       H0       H01     AOSYM     SMH    MOLCAS    ERIS     OPER   

 PROGRAMS   *        TOTAL       INT
 CPU TIMES  *         4.08      3.95
 REAL TIME  *         7.10 SEC
 DISK USED  *       612.31 MB
 **********************************************************************************************************************************


 Program * Restricted Hartree-Fock

 Orbital guess generated from atomic densities. Full valence occupancy:   15

 Initial occupancy:   9

 NELEC=   18   SYM=1   MS2= 0   THRE=1.0D-08   THRD=3.2D-06   THRG=3.2D-06  HFMA2=F  DIIS_START=2   DIIS_MAX=10   DIIS_INCORE=F

 Level shifts:    0.00 (CLOSED)    0.00 (OPEN)    0.30 (GAP_MIN)

 ITER           ETOT              DE          GRAD        DDIFF     DIIS  NEXP   TIME(IT)  TIME(TOT)  DIAG
   1      -95.06775743     -95.06775743     0.00D+00     0.62D-01     0     0       0.36      0.73    start
   2      -95.13011264      -0.06235521     0.72D-02     0.96D-02     1     0       0.38      1.11    diag
   3      -95.14144255      -0.01132990     0.33D-02     0.33D-02     2     0       0.38      1.49    diag
   4      -95.14229725      -0.00085470     0.64D-03     0.82D-03     3     0       0.38      1.87    diag
   5      -95.14239316      -0.00009591     0.19D-03     0.30D-03     4     0       0.36      2.23    diag
   6      -95.14240704      -0.00001388     0.72D-04     0.13D-03     5     0       0.37      2.60    diag
   7      -95.14240928      -0.00000224     0.25D-04     0.55D-04     6     0       0.38      2.98    diag
   8      -95.14240960      -0.00000032     0.73D-05     0.24D-04     7     0       0.38      3.36    fixocc
   9      -95.14240962      -0.00000002     0.19D-05     0.62D-05     8     0       0.38      3.74    diag
  10      -95.14240962      -0.00000000     0.55D-06     0.19D-05     9     0       0.39      4.13    diag/orth
  11      -95.14240962      -0.00000000     0.12D-06     0.27D-06     0     0       0.38      4.51    diag

 Final occupancy:   9

 !RHF STATE 1.1 Energy                -95.142409622539
  RHF One-electron energy            -210.053832693474
  RHF Two-electron energy              73.340100072136
  RHF Kinetic energy                   95.082264660437
  RHF Nuclear energy                   41.571322998799
  RHF Virial quotient                  -1.000632557105

 !RHF STATE 1.1 Dipole moment           0.29572405     0.54746595     2.16819664
 Dipole moment /Debye                   0.75165556     1.39151964     5.51100617

 Orbital energies:

           1.1          2.1          3.1          4.1          5.1          6.1          7.1          8.1          9.1         10.1
    -15.658570   -11.154884    -1.267538    -0.849859    -0.736634    -0.730115    -0.557869    -0.469636    -0.261712     0.101441

          11.1
      0.165129


 HOMO      9.1    -0.261712 =      -7.1215eV
 LUMO     10.1     0.101441 =       2.7604eV
 LUMO-HOMO         0.363153 =       9.8819eV

 Orbitals saved in record  2100.2


 **********************************************************************************************************************************
 DATASETS  * FILE   NREC   LENGTH (MB)   RECORD NAMES
              1      19      174.70       500      610      700      900      950      970     1000      129      960     1100   
                                          VAR    BASINP    GEOM    SYMINP    ZMAT    AOBASIS   BASIS     P2S    ABASIS      S 
                                         1400     1410     1200     1210     1080     1600     1650     1300     1700   
                                           T        V       H0       H01     AOSYM     SMH    MOLCAS    ERIS     OPER   

              2       4        0.75       700     1000      520     2100   
                                         GEOM     BASIS   MCVARS     RHF  

 PROGRAMS   *        TOTAL    HF-SCF       INT
 CPU TIMES  *         8.59      4.51      3.95
 REAL TIME  *        12.88 SEC
 DISK USED  *       612.31 MB
 **********************************************************************************************************************************


 PROGRAM * CCSD (Closed-shell coupled cluster)     Authors: C. Hampel, H.-J. Werner, 1991, M. Deegan, P.J. Knowles, 1992


 Convergence thresholds:  THRVAR = 1.00D-08  THRDEN = 1.00D-06

 Number of core orbitals:           2 (   2 )
 Number of closed-shell orbitals:   7 (   7 )
 Number of external orbitals:     121 ( 121 )

 Molecular orbitals read from record     2100.2  Type=RHF/CANONICAL  

 Number of N-1 electron functions:               7
 Number of N-2 electron functions:              28
 Number of singly external CSFs:               847
 Number of doubly external CSFs:            359128
 Total number of CSFs:                      359976

 Length of J-op  integral file:               0.00 MB
 Length of K-op  integral file:               1.22 MB
 Length of 3-ext integral record:             0.00 MB

 Integral transformation finished. Total CPU:   1.32 sec, npass=  1  Memory used:  10.02 MW

 Reference energy:                    -95.14240962

 MP2 singlet pair energy:              -0.27250900
 MP2 triplet pair energy:              -0.13342712
 MP2 correlation energy:               -0.40593612
 MP2 total energy:                    -95.54834574

 SCS-MP2 correlation energy:           -0.41003212   (PS=  1.200000  PT=  0.333333)
 SCS-MP2 total energy:                -95.55244174

 ITER.      SQ.NORM     CORR.ENERGY   TOTAL ENERGY   ENERGY CHANGE        DEN1      VAR(S)    VAR(P)  DIIS     TIME  TIME/IT
   1      1.13190250    -0.42899262   -95.57140225    -0.02305650    -0.01310996  0.10D-02  0.19D-02  1  1    11.66     1.42
   2      1.14102153    -0.43070085   -95.57311047    -0.00170822    -0.00957755  0.30D-04  0.20D-03  2  2    13.03     1.60
   3      1.14395557    -0.43080183   -95.57321145    -0.00010098    -0.00181540  0.80D-05  0.13D-04  3  3    14.42     1.59
   4      1.14477709    -0.43083351   -95.57324314    -0.00003168    -0.00033466  0.18D-05  0.10D-05  4  4    15.80     1.57
   5      1.14495462    -0.43083527   -95.57324489    -0.00000175    -0.00004661  0.76D-06  0.15D-06  5  5    17.19     1.57
   6      1.14502180    -0.43083416   -95.57324378     0.00000111    -0.00001023  0.29D-06  0.46D-07  6  6    18.63     1.57
   7      1.14506207    -0.43083434   -95.57324396    -0.00000017    -0.00000194  0.93D-07  0.13D-07  6  2    20.00     1.56
   8      1.14509169    -0.43083427   -95.57324390     0.00000006    -0.00000149  0.16D-07  0.27D-08  6  1    21.40     1.57
   9      1.14510267    -0.43083411   -95.57324374     0.00000016    -0.00000100  0.28D-08  0.50D-09  6  3    22.79     1.57

 Norm of t1 vector:      0.04501404      S-energy:     0.00000042      T1 diagnostic:  0.00850685
                                                                       D1 diagnostic:  0.01892246
                                                                       D2 diagnostic:  0.15226779 (internal)


 RESULTS
 =======

  Reference energy                    -95.142409622539
  CCSD singlet pair energy             -0.307698071581
  CCSD triplet pair energy             -0.123136465291
  CCSD correlation energy              -0.430834114799

 !CCSD total energy                   -95.573243737337

 Timing summary (sec):

 STEP                 CPU(USER)    SYS     CPU(TOT)    WALL
 Transformation          1.35      0.17      1.52      1.98
 CCSD iterations        21.46      0.83     22.29     14.15

 Program statistics:

 Available memory in ccsd:               805306163
 Min. memory needed in ccsd:               1160357
 Max. memory used in ccsd:                 1452852
 Max. memory used in cckext:               1087153 ( 9 integral passes)



 **********************************************************************************************************************************
 DATASETS  * FILE   NREC   LENGTH (MB)   RECORD NAMES
              1      20      228.09       500      610      700      900      950      970     1000      129      960     1100   
                                          VAR    BASINP    GEOM    SYMINP    ZMAT    AOBASIS   BASIS     P2S    ABASIS      S 
                                         1400     1410     1200     1210     1080     1600     1650     1300     1700     1380   
                                           T        V       H0       H01     AOSYM     SMH    MOLCAS    ERIS     OPER     JKOP   

              2       4        0.75       700     1000      520     2100   
                                         GEOM     BASIS   MCVARS     RHF  

 PROGRAMS   *        TOTAL      CCSD    HF-SCF       INT
 CPU TIMES  *        22.46     13.86      4.51      3.95
 REAL TIME  *        29.13 SEC
 DISK USED  *       612.31 MB
 **********************************************************************************************************************************

 Dump information in style XML to xml output                                                                      

 Orbitals will not be exported.

 **********************************************************************************************************************************

 CCSD/cc-pVTZ energy=    -95.573243737337

            CCSD          HF-SCF
    -95.57324374    -95.14240962
 **********************************************************************************************************************************
 Molpro calculation terminated
