
 Working directory              : /home/jovyan/scratch/molpro.6Gm6taVMvL/
 Global scratch directory       : /home/jovyan/scratch/molpro.6Gm6taVMvL/
 Wavefunction directory         : /home/jovyan/wfu/
 Main file repository           : /home/jovyan/scratch/molpro.6Gm6taVMvL/

 id        : cardiff

 Nodes                nprocs
 jupyter-c-2efrancisan    1
 GA implementation: MPI file
 GA implementation (serial work in mppx): MPI file

 Using customized tuning parameters: mindgm=1; mindgv=20; mindgc=4; mindgr=1; noblas=0; minvec=7
 default implementation of scratch files=df  


 Variables initialized (1031), CPU time= 0.00 sec
 
 
 
 geometry={
 11
  C    -0.2692331    1.5323856    1.6480625
  C    -0.3350059   -1.3093287   -1.0219199
  C     0.7843782   -1.2453943   -1.7259045
  H    -0.2270821    2.5841057    1.3754968
  H     0.3752031    1.3551361    2.5057916
  H     0.0655748    0.9253778    0.8098806
  H    -1.2922149    1.2660609    1.9032646
  H    -1.2276984   -0.7725013   -1.3185237
  H    -0.4079332   -1.9000042   -0.1170863
  H     0.8570528   -0.6540376   -2.6302551
  H     1.6769587   -1.7817999   -1.4288065
 }
 basis=cc-pVTZ
 angstrom
 
 
 hf; ccsd
 
 
 
 {put,xml;noorbitals,nobasis}
 Commands initialized (841), CPU time= 0.01 sec, 704 directives.
 Default parameters read. Elapsed time= 0.09 sec

 Checking input...
 Passed
1


                                         ***  PROGRAM SYSTEM MOLPRO  ***
                                       Copyright, TTI GmbH Stuttgart, 2015
                                    Version 2023.1 linked Mon Jun  5 13:27:10 2023


 **********************************************************************************************************************************
 LABEL *                                                                                                                                                                 
  (16 PROC) 64 bit serial version                                                        DATE: 02-Aug-23          TIME: 15:50:10  
 **********************************************************************************************************************************

 SHA1:             9738a14712571edd23541b6d7c4f3a3d766f8287
 **********************************************************************************************************************************

 Memory per process:       805 MW
 Total memory per node:   1074 MW
 Total GA space:           268 MW

 GA preallocation disabled
 GA check enabled

 Geometry recognized as XYZ


 Variable memory set to 805.3 MW

 SETTING BASIS          =    CC-PVTZ


 Recomputing integrals since basis changed


 Using spherical harmonics

 Library entry C      S cc-pVTZ              selected for orbital group  1
 Library entry C      P cc-pVTZ              selected for orbital group  1
 Library entry C      D cc-pVTZ              selected for orbital group  1
 Library entry C      F cc-pVTZ              selected for orbital group  1
 Library entry H      S cc-pVTZ              selected for orbital group  2
 Library entry H      P cc-pVTZ              selected for orbital group  2
 Library entry H      D cc-pVTZ              selected for orbital group  2


 PROGRAM * SEWARD (Integral evaluation for generally contracted gaussian basis sets)     Author: Roland Lindh, 1990

 Geometry written to block  1 of record 700


 Point group  C1  



 ATOMIC COORDINATES

 NR  ATOM    CHARGE       X              Y              Z

   1  C       6.00   -0.508776823    2.895789101    3.114386761
   2  C       6.00   -0.633069401   -2.474272650   -1.931148732
   3  C       6.00    1.482259976   -2.353454144   -3.261486822
   4  H       1.00   -0.429122977    4.883252050    2.599312237
   5  H       1.00    0.709031100    2.560836091    4.735259849
   6  H       1.00    0.123918413    1.748710604    1.530452528
   7  H       1.00   -2.441932255    2.392508358    3.596648837
   8  H       1.00   -2.320013740   -1.459815888   -2.491648682
   9  H       1.00   -0.770882025   -3.590487574   -0.221261040
  10  H       1.00    1.619595066   -1.235951939   -4.970461777
  11  H       1.00    3.168992665   -3.367113820   -2.700052970

 Bond lengths in Bohr (Angstrom)

 1-4  2.054666755  1-5  2.054867203  1-6  2.055465883  1-7  2.054983733  2-3  2.501802334
     ( 1.087282823)     ( 1.087388896)     ( 1.087705703)     ( 1.087450560)     ( 1.323896781)

  2- 8  2.046720283   2- 9  2.046617696   3-10  2.046525715   3-11  2.046406869
       ( 1.083077731)       ( 1.083023444)       ( 1.082974770)       ( 1.082911879)

 Bond angles

  2- 3-10  121.81347378   2- 3-11  121.81015358   3- 2- 8  121.82569891   3- 2- 9  121.83912347

  4-1-5  109.41679654   4-1-6  109.55426141   4-1-7  109.40215530   5-1-6  109.53935655

  5- 1- 7  109.41910421   6- 1- 7  109.49545271   8- 2- 9  116.33511298  10- 3-11  116.37637094

 NUCLEAR CHARGE:                   26
 NUMBER OF PRIMITIVE AOS:         277
 NUMBER OF SYMMETRY AOS:          254
 NUMBER OF CONTRACTIONS:          202   (  202A   )
 NUMBER OF INNER CORE ORBITALS:     0   (    0A   )
 NUMBER OF OUTER CORE ORBITALS:     3   (    3A   )
 NUMBER OF VALENCE ORBITALS:       20   (   20A   )


 NUCLEAR REPULSION ENERGY   67.10502103


 Eigenvalues of metric

         1 0.690E-03 0.102E-02 0.124E-02 0.133E-02 0.142E-02 0.152E-02 0.188E-02 0.192E-02


 Contracted 2-electron integrals neglected if value below      1.0D-11
 AO integral compression algorithm  1   Integral accuracy      1.0D-11

     577.503 MB (compressed) written to integral file ( 35.2%)


 NUMBER OF SORTED TWO-ELECTRON INTEGRALS:  210196756.     BUFFER LENGTH:  32768
 NUMBER OF SEGMENTS:  14  SEGMENT LENGTH:   15999503      RECORD LENGTH: 524288

 Memory used in sort:      16.56 MW

 SORT1 READ   205066374. AND WROTE   144701476. INTEGRALS IN    420 RECORDS. CPU TIME:     2.28 SEC, REAL TIME:     3.66 SEC
 SORT2 READ   144701476. AND WROTE   210196756. INTEGRALS IN   2203 RECORDS. CPU TIME:     2.98 SEC, REAL TIME:     3.69 SEC

 FILE SIZES:   FILE 1:   609.2 MBYTE,  FILE 4:  1761.7 MBYTE,   TOTAL:   2370.9 MBYTE

 OPERATOR DM      FOR CENTER  0  COORDINATES:    0.000000    0.000000    0.000000


 **********************************************************************************************************************************
 DATASETS  * FILE   NREC   LENGTH (MB)   RECORD NAMES
              1      19      519.72       500      610      700      900      950      970     1000      129      960     1100   
                                          VAR    BASINP    GEOM    SYMINP    ZMAT    AOBASIS   BASIS     P2S    ABASIS      S 
                                         1400     1410     1200     1210     1080     1600     1650     1300     1700   
                                           T        V       H0       H01     AOSYM     SMH    MOLCAS    ERIS     OPER   

 PROGRAMS   *        TOTAL       INT
 CPU TIMES  *        15.64     15.50
 REAL TIME  *        19.91 SEC
 DISK USED  *         2.21 GB
 **********************************************************************************************************************************


 Program * Restricted Hartree-Fock

 Orbital guess generated from atomic densities. Full valence occupancy:   23

 Initial occupancy:  13

 NELEC=   26   SYM=1   MS2= 0   THRE=1.0D-08   THRD=3.2D-06   THRG=3.2D-06  HFMA2=F  DIIS_START=2   DIIS_MAX=10   DIIS_INCORE=F

 Level shifts:    0.00 (CLOSED)    0.00 (OPEN)    0.30 (GAP_MIN)

 ITER           ETOT              DE          GRAD        DDIFF     DIIS  NEXP   TIME(IT)  TIME(TOT)  DIAG
   1     -118.23475884    -118.23475884     0.00D+00     0.50D-01     0     0       2.12      4.22    start
   2     -118.27187655      -0.03711770     0.34D-02     0.47D-02     1     0       2.12      6.34    diag
   3     -118.27620660      -0.00433005     0.13D-02     0.13D-02     2     0       2.13      8.47    diag
   4     -118.27679980      -0.00059320     0.34D-03     0.47D-03     3     0       2.14     10.61    diag
   5     -118.27680915      -0.00000935     0.41D-04     0.90D-04     4     0       2.16     12.77    diag
   6     -118.27680933      -0.00000018     0.52D-05     0.15D-04     5     0       2.13     14.90    diag
   7     -118.27680933      -0.00000001     0.10D-05     0.29D-05     6     0       2.13     17.03    diag
   8     -118.27680933      -0.00000000     0.24D-06     0.34D-06     0     0       2.14     19.17    fixocc

 Final occupancy:  13

 !RHF STATE 1.1 Energy               -118.276809334039
  RHF One-electron energy            -290.432942985688
  RHF Two-electron energy             105.051112622885
  RHF Kinetic energy                  118.126929520909
  RHF Nuclear energy                   67.105021028764
  RHF Virial quotient                  -1.001268803090

 !RHF STATE 1.1 Dipole moment           0.00794821    -0.02954753    -0.03381556
 Dipole moment /Debye                   0.02020233    -0.07510232    -0.08595059

 Orbital energies:

           1.1          2.1          3.1          4.1          5.1          6.1          7.1          8.1          9.1         10.1
    -11.229364   -11.227560   -11.200725    -1.036111    -0.938994    -0.792495    -0.642905    -0.590603    -0.541065    -0.540889

          11.1         12.1         13.1         14.1         15.1
     -0.540588    -0.504902    -0.379149     0.137445     0.152217


 HOMO     13.1    -0.379149 =     -10.3172eV
 LUMO     14.1     0.137445 =       3.7401eV
 LUMO-HOMO         0.516594 =      14.0572eV

 Orbitals saved in record  2100.2


 **********************************************************************************************************************************
 DATASETS  * FILE   NREC   LENGTH (MB)   RECORD NAMES
              1      19      519.72       500      610      700      900      950      970     1000      129      960     1100   
                                          VAR    BASINP    GEOM    SYMINP    ZMAT    AOBASIS   BASIS     P2S    ABASIS      S 
                                         1400     1410     1200     1210     1080     1600     1650     1300     1700   
                                           T        V       H0       H01     AOSYM     SMH    MOLCAS    ERIS     OPER   

              2       4        1.19       700     1000      520     2100   
                                         GEOM     BASIS   MCVARS     RHF  

 PROGRAMS   *        TOTAL    HF-SCF       INT
 CPU TIMES  *        34.81     19.17     15.50
 REAL TIME  *        40.44 SEC
 DISK USED  *         2.21 GB
 **********************************************************************************************************************************


 PROGRAM * CCSD (Closed-shell coupled cluster)     Authors: C. Hampel, H.-J. Werner, 1991, M. Deegan, P.J. Knowles, 1992


 Convergence thresholds:  THRVAR = 1.00D-08  THRDEN = 1.00D-06

 Number of core orbitals:           3 (   3 )
 Number of closed-shell orbitals:  10 (  10 )
 Number of external orbitals:     189 ( 189 )

 Molecular orbitals read from record     2100.2  Type=RHF/CANONICAL  

 Number of N-1 electron functions:              10
 Number of N-2 electron functions:              55
 Number of singly external CSFs:              1890
 Number of doubly external CSFs:           1786995
 Total number of CSFs:                     1788886

 Length of J-op  integral file:               0.00 MB
 Length of K-op  integral file:               2.86 MB
 Length of 3-ext integral record:             0.00 MB

 Integral transformation finished. Total CPU:   8.80 sec, npass=  1  Memory used:  50.20 MW

 Reference energy:                   -118.27680933

 MP2 singlet pair energy:              -0.37318266
 MP2 triplet pair energy:              -0.16175417
 MP2 correlation energy:               -0.53493683
 MP2 total energy:                   -118.81174617

 SCS-MP2 correlation energy:           -0.54846623   (PS=  1.200000  PT=  0.333333)
 SCS-MP2 total energy:               -118.82527557

 ITER.      SQ.NORM     CORR.ENERGY   TOTAL ENERGY   ENERGY CHANGE        DEN1      VAR(S)    VAR(P)  DIIS     TIME  TIME/IT
   1      1.19662320    -0.57582279  -118.85263212    -0.04088595    -0.02566238  0.18D-02  0.30D-02  1  1    55.89    12.33
   2      1.21283695    -0.57900306  -118.85581239    -0.00318027    -0.01499157  0.39D-04  0.39D-03  2  2    68.36    13.41
   3      1.21842905    -0.57923902  -118.85604836    -0.00023597    -0.00292098  0.10D-04  0.39D-04  3  3    80.85    13.72
   4      1.22055032    -0.57931257  -118.85612190    -0.00007355    -0.00067700  0.58D-06  0.35D-05  4  4    93.76    13.89
   5      1.22104429    -0.57931076  -118.85612010     0.00000181    -0.00010810  0.58D-07  0.26D-06  5  5   106.63    13.88
   6      1.22112437    -0.57930753  -118.85611686     0.00000323    -0.00001194  0.41D-08  0.17D-07  6  6   119.56    14.17
   7      1.22113286    -0.57930783  -118.85611716    -0.00000030     0.00000100  0.47D-09  0.12D-08  6  2   132.48    14.08
   8      1.22113487    -0.57930787  -118.85611720    -0.00000004    -0.00000024  0.50D-10  0.94D-10  6  1   145.15    13.97

 Norm of t1 vector:      0.05863123      S-energy:    -0.00000002      T1 diagnostic:  0.00927041
                                                                       D1 diagnostic:  0.03039351
                                                                       D2 diagnostic:  0.19393657 (internal)

 Doubles amplitudes (print threshold =  0.500E-01):

         I         J         SYM. A    SYM. B    A         B      T(IJ, AB)

        10        10         1         1         2         2     -0.09463497


 RESULTS
 =======

  Reference energy                   -118.276809334038
  CCSD singlet pair energy             -0.427830319725
  CCSD triplet pair energy             -0.151477524648
  CCSD correlation energy              -0.579307866940

 !CCSD total energy                  -118.856117200978

 Timing summary (sec):

 STEP                 CPU(USER)    SYS     CPU(TOT)    WALL
 Transformation          8.95      0.66      9.61     10.66
 CCSD iterations       136.36      3.06    139.42    111.94

 Program statistics:

 Available memory in ccsd:               805305955
 Min. memory needed in ccsd:               4922928
 Max. memory used in ccsd:                 6481433
 Max. memory used in cckext:               4841756 ( 8 integral passes)



 **********************************************************************************************************************************
 DATASETS  * FILE   NREC   LENGTH (MB)   RECORD NAMES
              1      20      804.98       500      610      700      900      950      970     1000      129      960     1100   
                                          VAR    BASINP    GEOM    SYMINP    ZMAT    AOBASIS   BASIS     P2S    ABASIS      S 
                                         1400     1410     1200     1210     1080     1600     1650     1300     1700     1380   
                                           T        V       H0       H01     AOSYM     SMH    MOLCAS    ERIS     OPER     JKOP   

              2       4        1.19       700     1000      520     2100   
                                         GEOM     BASIS   MCVARS     RHF  

 PROGRAMS   *        TOTAL      CCSD    HF-SCF       INT
 CPU TIMES  *       145.00    110.19     19.17     15.50
 REAL TIME  *       163.08 SEC
 DISK USED  *         2.21 GB
 **********************************************************************************************************************************

 Dump information in style XML to xml output                                                                      

 Orbitals will not be exported.

 **********************************************************************************************************************************

 CCSD/cc-pVTZ energy=   -118.856117200978

            CCSD          HF-SCF
   -118.85611720   -118.27680933
 **********************************************************************************************************************************
 Molpro calculation terminated
