
 Working directory              : /home/jovyan/scratch/molpro.Dh96vvuhgv/
 Global scratch directory       : /home/jovyan/scratch/molpro.Dh96vvuhgv/
 Wavefunction directory         : /home/jovyan/wfu/
 Main file repository           : /home/jovyan/scratch/molpro.Dh96vvuhgv/

 id        : cardiff

 Nodes                nprocs
 jupyter-c-2efrancisan    1
 GA implementation: MPI file
 GA implementation (serial work in mppx): MPI file

 Using customized tuning parameters: mindgm=1; mindgv=20; mindgc=4; mindgr=1; noblas=0; minvec=7
 default implementation of scratch files=df  


 Variables initialized (1031), CPU time= 0.00 sec
 
 
 
 geometry={
 6
  C 0.000000 0.416575 0.000000
  H -0.263416 1.473336 0.000000
  O -1.110471 -0.343273 0.000000
  H 1.876501 0.630870 0.000000
  H -0.825348 -1.269969 0.000000
  N 1.156576 -0.083929 0.000000
 }
 basis=cc-pVDZ
 angstrom
 
 
 hf; papt;mp4
 
 
 
 {put,xml;noorbitals,nobasis}
 Commands initialized (841), CPU time= 0.01 sec, 704 directives.
 Default parameters read. Elapsed time= 0.09 sec

 Checking input...
 Passed
1


                                         ***  PROGRAM SYSTEM MOLPRO  ***
                                       Copyright, TTI GmbH Stuttgart, 2015
                                    Version 2023.1 linked Mon Jun  5 13:27:10 2023


 **********************************************************************************************************************************
 LABEL *                                                                                                                                                                 
  (16 PROC) 64 bit serial version                                                        DATE: 02-Aug-23          TIME: 15:45:42  
 **********************************************************************************************************************************

 SHA1:             9738a14712571edd23541b6d7c4f3a3d766f8287
 **********************************************************************************************************************************

 Memory per process:       805 MW
 Total memory per node:   1074 MW
 Total GA space:           268 MW

 GA preallocation disabled
 GA check enabled

 Geometry recognized as XYZ


 Variable memory set to 805.3 MW

 SETTING BASIS          =    CC-PVDZ


 Recomputing integrals since basis changed


 Using spherical harmonics

 Library entry C      S cc-pVDZ              selected for orbital group  1
 Library entry C      P cc-pVDZ              selected for orbital group  1
 Library entry C      D cc-pVDZ              selected for orbital group  1
 Library entry H      S cc-pVDZ              selected for orbital group  2
 Library entry H      P cc-pVDZ              selected for orbital group  2
 Library entry O      S cc-pVDZ              selected for orbital group  3
 Library entry O      P cc-pVDZ              selected for orbital group  3
 Library entry O      D cc-pVDZ              selected for orbital group  3
 Library entry N      S cc-pVDZ              selected for orbital group  5
 Library entry N      P cc-pVDZ              selected for orbital group  5
 Library entry N      D cc-pVDZ              selected for orbital group  5


 PROGRAM * SEWARD (Integral evaluation for generally contracted gaussian basis sets)     Author: Roland Lindh, 1990

 Geometry written to block  1 of record 700


 Point group  Cs  



 ATOMIC COORDINATES

 NR  ATOM    CHARGE       X              Y              Z

   1  C       6.00    0.000000000    0.787212660    0.000000000
   2  H       1.00   -0.497784097    2.784201530    0.000000000
   3  O       8.00   -2.098486059   -0.648691956    0.000000000
   4  H       1.00    3.546072963    1.192171520    0.000000000
   5  H       1.00   -1.559681678   -2.399893597    0.000000000
   6  N       7.00    2.185611882   -0.158602824    0.000000000

 Bond lengths in Bohr (Angstrom)

 1-2  2.058094641  1-3  2.542728025  1-6  2.381484040  3-5  1.832216512  4-6  1.917145190
     ( 1.089096782)     ( 1.345553724)     ( 1.260227082)     ( 0.969567224)     ( 1.014509545)

 Bond angles

  1-3-5  107.28024880   1-6-4  111.80433602   2-1-3  110.38544653   2-1-6  127.39709766

  3-1-6  122.21745581

 NUCLEAR CHARGE:                   24
 NUMBER OF PRIMITIVE AOS:         102
 NUMBER OF SYMMETRY AOS:           99
 NUMBER OF CONTRACTIONS:           57   (   42A'  +   15A"  )
 NUMBER OF INNER CORE ORBITALS:     0   (    0A'  +    0A"  )
 NUMBER OF OUTER CORE ORBITALS:     3   (    3A'  +    0A"  )
 NUMBER OF VALENCE ORBITALS:       15   (   12A'  +    3A"  )


 NUCLEAR REPULSION ENERGY   71.20546877

 Eigenvalues of metric

         1 0.517E-02 0.119E-01 0.169E-01 0.303E-01 0.357E-01 0.372E-01 0.470E-01 0.627E-01
         2 0.107E+00 0.170E+00 0.193E+00 0.355E+00 0.450E+00 0.530E+00 0.565E+00 0.645E+00


 Contracted 2-electron integrals neglected if value below      1.0D-11
 AO integral compression algorithm  1   Integral accuracy      1.0D-11

     4.194 MB (compressed) written to integral file ( 61.6%)


 NUMBER OF SORTED TWO-ELECTRON INTEGRALS:     740496.     BUFFER LENGTH:  32768
 NUMBER OF SEGMENTS:   1  SEGMENT LENGTH:     740496      RECORD LENGTH: 524288

 Memory used in sort:       1.30 MW

 SORT1 READ      875140. AND WROTE      732783. INTEGRALS IN      3 RECORDS. CPU TIME:     0.01 SEC, REAL TIME:     0.06 SEC
 SORT2 READ      732783. AND WROTE      740496. INTEGRALS IN     16 RECORDS. CPU TIME:     0.04 SEC, REAL TIME:     0.05 SEC

 FILE SIZES:   FILE 1:    34.4 MBYTE,  FILE 4:    12.6 MBYTE,   TOTAL:     47.0 MBYTE

 OPERATOR DM      FOR CENTER  0  COORDINATES:    0.000000    0.000000    0.000000


 **********************************************************************************************************************************
 DATASETS  * FILE   NREC   LENGTH (MB)   RECORD NAMES
              1      19       32.00       500      610      700      900      950      970     1000      129      960     1100   
                                          VAR    BASINP    GEOM    SYMINP    ZMAT    AOBASIS   BASIS     P2S    ABASIS      S 
                                         1400     1410     1200     1210     1080     1600     1650     1300     1700   
                                           T        V       H0       H01     AOSYM     SMH    MOLCAS    ERIS     OPER   

 PROGRAMS   *        TOTAL       INT
 CPU TIMES  *         0.82      0.67
 REAL TIME  *         1.89 SEC
 DISK USED  *        45.25 MB
 **********************************************************************************************************************************


 Program * Restricted Hartree-Fock

 Orbital guess generated from atomic densities. Full valence occupancy:   15   3

 Initial occupancy:  10   2

 NELEC=   24   SYM=1   MS2= 0   THRE=1.0D-08   THRD=3.2D-06   THRG=3.2D-06  HFMA2=F  DIIS_START=2   DIIS_MAX=10   DIIS_INCORE=F

 Level shifts:    0.00 (CLOSED)    0.00 (OPEN)    0.30 (GAP_MIN)

 ITER           ETOT              DE          GRAD        DDIFF     DIIS  NEXP   TIME(IT)  TIME(TOT)  DIAG
   1     -168.87478413    -168.87478413     0.00D+00     0.20D+00     0     0       0.00      0.01    start
   2     -168.91517326      -0.04038913     0.13D-01     0.30D-01     1     0       0.01      0.02    diag
   3     -168.92765374      -0.01248048     0.66D-02     0.10D-01     2     0       0.01      0.03    diag
   4     -168.92848702      -0.00083329     0.13D-02     0.28D-02     3     0       0.01      0.04    diag
   5     -168.92857127      -0.00008424     0.40D-03     0.79D-03     4     0       0.00      0.04    diag
   6     -168.92858851      -0.00001724     0.15D-03     0.31D-03     5     0       0.01      0.05    diag
   7     -168.92859233      -0.00000382     0.63D-04     0.19D-03     6     0       0.01      0.06    diag
   8     -168.92859260      -0.00000028     0.16D-04     0.59D-04     7     0       0.01      0.07    fixocc
   9     -168.92859262      -0.00000002     0.45D-05     0.13D-04     8     0       0.00      0.07    diag
  10     -168.92859262      -0.00000000     0.15D-05     0.48D-05     9     0       0.01      0.08    diag/orth
  11     -168.92859262      -0.00000000     0.28D-06     0.83D-06     9     0       0.00      0.08    diag
  12     -168.92859262      -0.00000000     0.69D-07     0.15D-06     0     0       0.01      0.09    diag

 Final occupancy:  10   2

 !RHF STATE 1.1 Energy               -168.928592622810
  RHF One-electron energy            -371.507219599283
  RHF Two-electron energy             131.373158204339
  RHF Kinetic energy                  168.743000069372
  RHF Nuclear energy                   71.205468772134
  RHF Virial quotient                  -1.001099853347

 !RHF STATE 1.1 Dipole moment           0.03076969     0.45095337     0.00000000
 Dipole moment /Debye                   0.07820875     1.14620914     0.00000000

 Orbital energies:

           1.1          2.1          3.1          4.1          5.1          6.1          7.1          8.1          9.1         10.1
    -20.597286   -15.545242   -11.346347    -1.423744    -1.194194    -0.859785    -0.727866    -0.665130    -0.575445    -0.440993

          11.1         12.1
      0.194885     0.203827

           1.2          2.2          3.2          4.2
     -0.594176    -0.410242     0.194798     0.677605


 HOMO      2.2    -0.410242 =     -11.1633eV
 LUMO      3.2     0.194798 =       5.3007eV
 LUMO-HOMO         0.605040 =      16.4640eV

 Orbitals saved in record  2100.2


 **********************************************************************************************************************************
 DATASETS  * FILE   NREC   LENGTH (MB)   RECORD NAMES
              1      19       32.00       500      610      700      900      950      970     1000      129      960     1100   
                                          VAR    BASINP    GEOM    SYMINP    ZMAT    AOBASIS   BASIS     P2S    ABASIS      S 
                                         1400     1410     1200     1210     1080     1600     1650     1300     1700   
                                           T        V       H0       H01     AOSYM     SMH    MOLCAS    ERIS     OPER   

              2       4        0.49       700     1000      520     2100   
                                         GEOM     BASIS   MCVARS     RHF  

 PROGRAMS   *        TOTAL    HF-SCF       INT
 CPU TIMES  *         0.91      0.10      0.67
 REAL TIME  *         2.06 SEC
 DISK USED  *        45.25 MB
 **********************************************************************************************************************************


 PROGRAM * PAPT (Closed-shell)     Authors: C. Hampel, H.-J. Werner, 1991, P.J. Knowles, 2021


 Convergence thresholds:  THRVAR = 1.00D-08  THRDEN = 1.00D-06

 Number of core orbitals:           3 (   3   0 )
 Number of closed-shell orbitals:   9 (   7   2 )
 Number of external orbitals:      45 (  32  13 )

 Molecular orbitals read from record     2100.2  Type=RHF/CANONICAL  

 Number of N-1 electron functions:               9
 Number of N-2 electron functions:              45
 Number of singly external CSFs:               250
 Number of doubly external CSFs:             43465
 Total number of CSFs:                       43716

 Length of J-op  integral file:               0.00 MB
 Length of K-op  integral file:               0.20 MB

 Integral transformation finished. Total CPU:   0.02 sec, npass=  1  Memory used:   0.18 MW

 Reference energy:                   -168.92859262

                        CORR.ENERGY   TOTAL ENERGY   ENERGY CHANGE
 MP2:                   -0.48304085  -169.41163348    -0.48304085

 SCS-MP2 correlation energy:           -0.47117795   (PS=  1.200000  PT=  0.333333)
 SCS-MP2 total energy:               -169.39977058
 Iteration:   1     0.2654D+00
 Iteration:   2     0.7808D+00
 Iteration:   3     0.1155D+00
 Iteration:   4     0.8154D-01
 Iteration:   5     0.1027D+00
 Iteration:   6     0.3384D-01
 Iteration:   7     0.3422D+00
 Iteration:   8     0.1403D-01
 Iteration:   9     0.1733D-01
 Iteration:  10     0.6900D-02
 Iteration:  11     0.3402D-02
 Iteration:  12     0.2123D-01
 Iteration:  13     0.1068D-02
 Iteration:  14     0.1221D-02
 Iteration:  15     0.3618D-03
 Iteration:  16     0.2711D-03
 Iteration:  17     0.3223D-03
 Iteration:  18     0.7295D-04
 PAPT operator written to  7000.1
 PAPT orbitals and eigenvalues written to  7000.2

 MP3(D):                -0.49632207  -169.42491469    -0.01328122



 RESULTS
 =======

  Reference energy                   -168.928592622810
  MP3 singlet pair energy              -0.324686896407
  MP3 triplet pair energy              -0.171635174572
  MP3 correlation energy               -0.496322070979

 !MP3 total energy                   -169.424914693789

 Timing summary (sec):

 STEP                 CPU(USER)    SYS     CPU(TOT)    WALL
 Transformation          0.02      0.01      0.03      0.06
 CCSD iterations         1.46      0.01      1.47      0.25

 Program statistics:

 Available memory in ccsd:               805306034
 Min. memory needed in ccsd:                147835
 Max. memory used in ccsd:                  180273
 Max. memory used in cckext:                231419 ( 1 integral passes)



 **********************************************************************************************************************************
 DATASETS  * FILE   NREC   LENGTH (MB)   RECORD NAMES
              1      21       32.95       500      610      700      900      950      970     1000      129      960     1100   
                                          VAR    BASINP    GEOM    SYMINP    ZMAT    AOBASIS   BASIS     P2S    ABASIS      S 
                                         1400     1410     1200     1210     1080     1600     1650     1300     1700     1380   
                                           T        V       H0       H01     AOSYM     SMH    MOLCAS    ERIS     OPER     JKOP   
                                         7000   
                                        PAPT AO    

              2       5        0.64       700     1000      520     2100     7000   
                                         GEOM     BASIS   MCVARS     RHF     PAPT   

 PROGRAMS   *        TOTAL      PAPT    HF-SCF       INT
 CPU TIMES  *         1.19      0.27      0.10      0.67
 REAL TIME  *         2.42 SEC
 DISK USED  *        45.25 MB
 **********************************************************************************************************************************


 PROGRAM * MP4 (Closed-shell)     Authors: C. Hampel, H.-J. Werner, 1991, M. Deegan, P.J. Knowles, 1992


 Convergence thresholds:  THRVAR = 1.00D-08  THRDEN = 1.00D-06

 MP4(T)     terms to be evaluated (factor= 0.000)


 Number of core orbitals:           3 (   3   0 )
 Number of closed-shell orbitals:   9 (   7   2 )
 Number of external orbitals:      45 (  32  13 )

 Molecular orbitals read from record     7000.2  Type=PAPT/CANONICAL (state 1.1)

 Number of N-1 electron functions:               9
 Number of N-2 electron functions:              45
 Number of singly external CSFs:               250
 Number of doubly external CSFs:             43465
 Total number of CSFs:                       43716

 Length of J-op  integral file:               0.00 MB
 Length of K-op  integral file:               0.20 MB

 Memory could be reduced to 0.72 Mwords without degradation in triples

 Integral transformation finished. Total CPU:   0.03 sec, npass=  1  Memory used:   0.48 MW
 Orbital energies read from record       7000.2  Type=PAPT/CANONICAL (state 1.1)

 Reference energy:                   -168.92859262

                        CORR.ENERGY   TOTAL ENERGY   ENERGY CHANGE
 MP2:                   -0.50001731  -169.42860994    -0.50001731

 SCS-MP2 correlation energy:           -0.49013550   (PS=  1.200000  PT=  0.333333)
 SCS-MP2 total energy:               -169.41872812

 MP3(D):                -0.50029256  -169.42888518    -0.00027524
 MP4(DQ):               -0.49857109  -169.42716372     0.00172146
 MP4(SDQ):              -0.50341208  -169.43200470    -0.00484099

 Norm of t1 vector:      0.06536232      S-energy:    -0.00484099      T1 diagnostic:  0.01089372

 Largest off-diagonal element in interal  block of Fock matrix:  0.10D+00
 Largest off-diagonal element in external block of Fock matrix:  0.12D+00


 Total CPU time for triples:      0.28 sec


 RESULTS
 =======

  Reference energy                   -168.928592622810
  MP4(SDQ) singlet pair energy         -0.325622342139
  MP4(SDQ) triplet pair energy         -0.172948752251
  MP4(SDQ) correlation energy          -0.503412081966

  Triples contribution                 -0.016777386117
  Total correlation energy             -0.520189468083

  MP4(SDQ) total energy              -169.432004704776
 !MP4(SDTQ) total energy             -169.448782090893

 Timing summary (sec):

 STEP                 CPU(USER)    SYS     CPU(TOT)    WALL
 Transformation          0.04      0.01      0.05      0.12
 CCSD iterations         1.62      0.02      1.64      0.10
 Triples                 0.28      0.00      0.28      0.29

 Program statistics:

 Available memory in ccsd:               805306034
 Min. memory needed in ccsd:                147835
 Max. memory used in ccsd:                  180273
 Max. memory used in cckext:                231419 ( 1 integral passes)



 **********************************************************************************************************************************
 DATASETS  * FILE   NREC   LENGTH (MB)   RECORD NAMES
              1      22       34.63       500      610      700      900      950      970     1000      129      960     1100   
                                          VAR    BASINP    GEOM    SYMINP    ZMAT    AOBASIS   BASIS     P2S    ABASIS      S 
                                         1400     1410     1200     1210     1080     1600     1650     1300     1700     1380   
                                           T        V       H0       H01     AOSYM     SMH    MOLCAS    ERIS     OPER     JKOP   
                                         7000     1380(1)
                                        PAPT AO   JKOP   

              2       5        0.64       700     1000      520     2100     7000   
                                         GEOM     BASIS   MCVARS     RHF     PAPT   

 PROGRAMS   *        TOTAL       MP4      PAPT    HF-SCF       INT
 CPU TIMES  *         1.65      0.45      0.27      0.10      0.67
 REAL TIME  *         3.04 SEC
 DISK USED  *        45.25 MB
 **********************************************************************************************************************************

 Dump information in style XML to xml output                                                                      

 Orbitals will not be exported.

 **********************************************************************************************************************************

 MP4/cc-pVDZ energy=   -169.448782090893

             MP4            PAPT          HF-SCF
   -169.44878209   -169.42491469   -168.92859262
 **********************************************************************************************************************************
 Molpro calculation terminated
