
 Working directory              : /home/jovyan/scratch/molpro.oGMWXW3err/
 Global scratch directory       : /home/jovyan/scratch/molpro.oGMWXW3err/
 Wavefunction directory         : /home/jovyan/wfu/
 Main file repository           : /home/jovyan/scratch/molpro.oGMWXW3err/

 id        : cardiff

 Nodes                nprocs
 jupyter-c-2efrancisan    1
 GA implementation: MPI file
 GA implementation (serial work in mppx): MPI file

 Using customized tuning parameters: mindgm=1; mindgv=20; mindgc=4; mindgr=1; noblas=0; minvec=7
 default implementation of scratch files=df  


 Variables initialized (1031), CPU time= 0.00 sec
 
 
 
 geometry={
 5
  C 0.000000 0.421035 0.000000
  H -0.383063 1.448042 0.000000
  H -0.659556 -1.343644 0.000000
  O 1.158518 0.117088 0.000000
  O -1.028191 -0.445914 0.000000
 }
 basis=cc-pVDZ
 angstrom
 
 
 hf; mp2
 
 
 
 {put,xml;noorbitals,nobasis}
 Commands initialized (841), CPU time= 0.01 sec, 704 directives.
 Default parameters read. Elapsed time= 0.08 sec

 Checking input...
 Passed
1


                                         ***  PROGRAM SYSTEM MOLPRO  ***
                                       Copyright, TTI GmbH Stuttgart, 2015
                                    Version 2023.1 linked Mon Jun  5 13:27:10 2023


 **********************************************************************************************************************************
 LABEL *                                                                                                                                                                 
  (16 PROC) 64 bit serial version                                                        DATE: 02-Aug-23          TIME: 15:33:38  
 **********************************************************************************************************************************

 SHA1:             9738a14712571edd23541b6d7c4f3a3d766f8287
 **********************************************************************************************************************************

 Memory per process:       805 MW
 Total memory per node:   1074 MW
 Total GA space:           268 MW

 GA preallocation disabled
 GA check enabled

 Geometry recognized as XYZ


 Variable memory set to 805.3 MW

 SETTING BASIS          =    CC-PVDZ


 Recomputing integrals since basis changed


 Using spherical harmonics

 Library entry C      S cc-pVDZ              selected for orbital group  1
 Library entry C      P cc-pVDZ              selected for orbital group  1
 Library entry C      D cc-pVDZ              selected for orbital group  1
 Library entry H      S cc-pVDZ              selected for orbital group  2
 Library entry H      P cc-pVDZ              selected for orbital group  2
 Library entry O      S cc-pVDZ              selected for orbital group  3
 Library entry O      P cc-pVDZ              selected for orbital group  3
 Library entry O      D cc-pVDZ              selected for orbital group  3


 PROGRAM * SEWARD (Integral evaluation for generally contracted gaussian basis sets)     Author: Roland Lindh, 1990

 Geometry written to block  1 of record 700


 Point group  Cs  



 ATOMIC COORDINATES

 NR  ATOM    CHARGE       X              Y              Z

   1  C       6.00    0.000000000    0.795640839    0.000000000
   2  H       1.00   -0.723884158    2.736402797    0.000000000
   3  H       1.00   -1.246380204   -2.539119169    0.000000000
   4  O       8.00    2.189281730    0.221264252    0.000000000
   5  O       8.00   -1.942999394   -0.842655335    0.000000000

 Bond lengths in Bohr (Angstrom)

 1-2  2.071367967  1-4  2.263374242  1-5  2.541507623  3-5  1.833921437
     ( 1.096120723)     ( 1.197726068)     ( 1.344907915)     ( 0.970469431)

 Bond angles

  1-5-3  107.81235042   2-1-4  125.15571256   2-1-5  109.68188590   4-1-5  125.16240154

 NUCLEAR CHARGE:                   24
 NUMBER OF PRIMITIVE AOS:          95
 NUMBER OF SYMMETRY AOS:           92
 NUMBER OF CONTRACTIONS:           52   (   38A'  +   14A"  )
 NUMBER OF INNER CORE ORBITALS:     0   (    0A'  +    0A"  )
 NUMBER OF OUTER CORE ORBITALS:     3   (    3A'  +    0A"  )
 NUMBER OF VALENCE ORBITALS:       14   (   11A'  +    3A"  )


 NUCLEAR REPULSION ENERGY   70.23492038

 Eigenvalues of metric

         1 0.935E-02 0.139E-01 0.178E-01 0.358E-01 0.436E-01 0.480E-01 0.696E-01 0.992E-01
         2 0.116E+00 0.175E+00 0.193E+00 0.404E+00 0.494E+00 0.553E+00 0.662E+00 0.999E+00


 Contracted 2-electron integrals neglected if value below      1.0D-11
 AO integral compression algorithm  1   Integral accuracy      1.0D-11

     3.146 MB (compressed) written to integral file ( 60.4%)


 NUMBER OF SORTED TWO-ELECTRON INTEGRALS:     513891.     BUFFER LENGTH:  32768
 NUMBER OF SEGMENTS:   1  SEGMENT LENGTH:     513891      RECORD LENGTH: 524288

 Memory used in sort:       1.07 MW

 SORT1 READ      623989. AND WROTE      506644. INTEGRALS IN      2 RECORDS. CPU TIME:     0.01 SEC, REAL TIME:     0.10 SEC
 SORT2 READ      506644. AND WROTE      513891. INTEGRALS IN     12 RECORDS. CPU TIME:     0.03 SEC, REAL TIME:     0.04 SEC

 FILE SIZES:   FILE 1:    33.3 MBYTE,  FILE 4:     8.5 MBYTE,   TOTAL:     41.7 MBYTE

 OPERATOR DM      FOR CENTER  0  COORDINATES:    0.000000    0.000000    0.000000


 **********************************************************************************************************************************
 DATASETS  * FILE   NREC   LENGTH (MB)   RECORD NAMES
              1      19       31.00       500      610      700      900      950      970     1000      129      960     1100   
                                          VAR    BASINP    GEOM    SYMINP    ZMAT    AOBASIS   BASIS     P2S    ABASIS      S 
                                         1400     1410     1200     1210     1080     1600     1650     1300     1700   
                                           T        V       H0       H01     AOSYM     SMH    MOLCAS    ERIS     OPER   

 PROGRAMS   *        TOTAL       INT
 CPU TIMES  *         0.69      0.55
 REAL TIME  *         1.97 SEC
 DISK USED  *        40.19 MB
 **********************************************************************************************************************************


 Program * Restricted Hartree-Fock

 Orbital guess generated from atomic densities. Full valence occupancy:   14   3

 Initial occupancy:  10   2

 NELEC=   24   SYM=1   MS2= 0   THRE=1.0D-08   THRD=3.2D-06   THRG=3.2D-06  HFMA2=F  DIIS_START=2   DIIS_MAX=10   DIIS_INCORE=F

 Level shifts:    0.00 (CLOSED)    0.00 (OPEN)    0.30 (GAP_MIN)

 ITER           ETOT              DE          GRAD        DDIFF     DIIS  NEXP   TIME(IT)  TIME(TOT)  DIAG
   1     -188.70132083    -188.70132083     0.00D+00     0.22D+00     0     0       0.00      0.01    start
   2     -188.74876175      -0.04744093     0.18D-01     0.42D-01     1     0       0.01      0.02    diag
   3     -188.78067119      -0.03190944     0.12D-01     0.16D-01     2     0       0.00      0.02    diag
   4     -188.78157329      -0.00090210     0.15D-02     0.28D-02     3     0       0.00      0.02    diag
   5     -188.78176289      -0.00018960     0.69D-03     0.13D-02     4     0       0.01      0.03    diag
   6     -188.78180008      -0.00003719     0.21D-03     0.51D-03     5     0       0.00      0.03    diag
   7     -188.78180815      -0.00000807     0.90D-04     0.30D-03     6     0       0.01      0.04    diag
   8     -188.78180872      -0.00000057     0.27D-04     0.84D-04     7     0       0.01      0.05    fixocc
   9     -188.78180876      -0.00000005     0.84D-05     0.27D-04     8     0       0.00      0.05    diag
  10     -188.78180877      -0.00000000     0.21D-05     0.70D-05     9     0       0.01      0.06    diag/orth
  11     -188.78180877      -0.00000000     0.35D-06     0.11D-05     9     0       0.00      0.06    diag
  12     -188.78180877      -0.00000000     0.73D-07     0.16D-06     0     0       0.01      0.07    diag

 Final occupancy:  10   2

 !RHF STATE 1.1 Energy               -188.781808767070
  RHF One-electron energy            -398.187745250846
  RHF Two-electron energy             139.171016106662
  RHF Kinetic energy                  188.572597233405
  RHF Nuclear energy                   70.234920377114
  RHF Virial quotient                  -1.001109448227

 !RHF STATE 1.1 Dipole moment          -0.62664262    -0.07054261     0.00000000
 Dipole moment /Debye                  -1.59276668    -0.17930144     0.00000000

 Orbital energies:

           1.1          2.1          3.1          4.1          5.1          6.1          7.1          8.1          9.1         10.1
    -20.622068   -20.563368   -11.397855    -1.472122    -1.373845    -0.890066    -0.718550    -0.705984    -0.596367    -0.464876

          11.1         12.1
      0.185330     0.216427

           1.2          2.2          3.2          4.2
     -0.629908    -0.487848     0.176800     0.652340


 HOMO     10.1    -0.464876 =     -12.6499eV
 LUMO      3.2     0.176800 =       4.8110eV
 LUMO-HOMO         0.641676 =      17.4609eV

 Orbitals saved in record  2100.2


 **********************************************************************************************************************************
 DATASETS  * FILE   NREC   LENGTH (MB)   RECORD NAMES
              1      19       31.00       500      610      700      900      950      970     1000      129      960     1100   
                                          VAR    BASINP    GEOM    SYMINP    ZMAT    AOBASIS   BASIS     P2S    ABASIS      S 
                                         1400     1410     1200     1210     1080     1600     1650     1300     1700   
                                           T        V       H0       H01     AOSYM     SMH    MOLCAS    ERIS     OPER   

              2       4        0.47       700     1000      520     2100   
                                         GEOM     BASIS   MCVARS     RHF  

 PROGRAMS   *        TOTAL    HF-SCF       INT
 CPU TIMES  *         0.76      0.07      0.55
 REAL TIME  *         2.10 SEC
 DISK USED  *        40.19 MB
 **********************************************************************************************************************************


 PROGRAM * MP2 (Closed-shell)     Authors: C. Hampel, H.-J. Werner, 1991, M. Deegan, P.J. Knowles, 1992


 Convergence thresholds:  THRVAR = 1.00D-08  THRDEN = 1.00D-06

 Number of core orbitals:           3 (   3   0 )
 Number of closed-shell orbitals:   9 (   7   2 )
 Number of external orbitals:      40 (  28  12 )

 Molecular orbitals read from record     2100.2  Type=RHF/CANONICAL  

 Number of N-1 electron functions:               9
 Number of N-2 electron functions:              45
 Number of singly external CSFs:               220
 Number of doubly external CSFs:             34180
 Total number of CSFs:                       34401

 Length of J-op  integral file:               0.00 MB
 Length of K-op  integral file:               0.18 MB

 Integral transformation finished. Total CPU:   0.01 sec, npass=  1  Memory used:   0.16 MW

 Memory needed for MP2:                      0.01 MW

 SCS-MP2 correlation energy:           -0.483270145039   (PS=  1.200000  PT=  0.333333)
 SCS-MP2 total energy:               -189.265078912109


  Reference energy                   -188.781808767070
  MP2 singlet pair energy              -0.299125170377
  MP2 triplet pair energy              -0.199799904514
  MP2 correlation energy               -0.498925074891

 !MP2 total energy                   -189.280733841961


 **********************************************************************************************************************************
 DATASETS  * FILE   NREC   LENGTH (MB)   RECORD NAMES
              1      20       31.78       500      610      700      900      950      970     1000      129      960     1100   
                                          VAR    BASINP    GEOM    SYMINP    ZMAT    AOBASIS   BASIS     P2S    ABASIS      S 
                                         1400     1410     1200     1210     1080     1600     1650     1300     1700     1380   
                                           T        V       H0       H01     AOSYM     SMH    MOLCAS    ERIS     OPER     JKOP   

              2       4        0.47       700     1000      520     2100   
                                         GEOM     BASIS   MCVARS     RHF  

 PROGRAMS   *        TOTAL       MP2    HF-SCF       INT
 CPU TIMES  *         0.83      0.07      0.07      0.55
 REAL TIME  *         2.26 SEC
 DISK USED  *        40.19 MB
 **********************************************************************************************************************************

 Dump information in style XML to xml output                                                                      

 Orbitals will not be exported.

 **********************************************************************************************************************************

 MP2/cc-pVDZ energy=   -189.280733841961

             MP2          HF-SCF
   -189.28073384   -188.78180877
 **********************************************************************************************************************************
 Molpro calculation terminated
