
 Working directory              : /home/jovyan/scratch/molpro.oMdZTlNnmu/
 Global scratch directory       : /home/jovyan/scratch/molpro.oMdZTlNnmu/
 Wavefunction directory         : /home/jovyan/wfu/
 Main file repository           : /home/jovyan/scratch/molpro.oMdZTlNnmu/

 id        : cardiff

 Nodes                nprocs
 jupyter-c-2efrancisan    1
 GA implementation: MPI file
 GA implementation (serial work in mppx): MPI file

 Using customized tuning parameters: mindgm=1; mindgv=20; mindgc=4; mindgr=1; noblas=0; minvec=7
 default implementation of scratch files=df  


 Variables initialized (1031), CPU time= 0.01 sec
 
 
 
 geometry={
 4
  S    -0.1980499    1.0304478    0.0000000
  S     0.1980499   -1.0304478    0.0000000
  H     1.0996175    1.3489585    0.0000000
  H    -1.0996175   -1.3489585    0.0000000
 }
 basis=cc-pVDZ
 angstrom
 
 
 hf; ccsd
 
 
 
 {put,xml;noorbitals,nobasis}
 Commands initialized (841), CPU time= 0.01 sec, 704 directives.
 Default parameters read. Elapsed time= 0.08 sec

 Checking input...
 Passed
1


                                         ***  PROGRAM SYSTEM MOLPRO  ***
                                       Copyright, TTI GmbH Stuttgart, 2015
                                    Version 2023.1 linked Mon Jun  5 13:27:10 2023


 **********************************************************************************************************************************
 LABEL *                                                                                                                                                                 
  (16 PROC) 64 bit serial version                                                        DATE: 04-Aug-23          TIME: 06:10:37  
 **********************************************************************************************************************************

 SHA1:             9738a14712571edd23541b6d7c4f3a3d766f8287
 **********************************************************************************************************************************

 Memory per process:       805 MW
 Total memory per node:   1074 MW
 Total GA space:           268 MW

 GA preallocation disabled
 GA check enabled

 Geometry recognized as XYZ


 Variable memory set to 805.3 MW

 SETTING BASIS          =    CC-PVDZ


 Recomputing integrals since basis changed


 Using spherical harmonics

 Library entry S      S cc-pVDZ              selected for orbital group  1
 Library entry S      P cc-pVDZ              selected for orbital group  1
 Library entry S      D cc-pVDZ              selected for orbital group  1
 Library entry H      S cc-pVDZ              selected for orbital group  2
 Library entry H      P cc-pVDZ              selected for orbital group  2


 PROGRAM * SEWARD (Integral evaluation for generally contracted gaussian basis sets)     Author: Roland Lindh, 1990

 Geometry written to block  1 of record 700


 Point group  C2h 



 ATOMIC COORDINATES

 NR  ATOM    CHARGE       X              Y              Z

   1  S      16.00   -0.374260070    1.947264128    0.000000000
   2  S      16.00    0.374260070   -1.947264128    0.000000000
   3  H       1.00    2.077975917    2.549162118    0.000000000
   4  H       1.00   -2.077975917   -2.549162118    0.000000000

 Bond lengths in Bohr (Angstrom)

 1-2  3.965807955  1-3  2.525023272  2-4  2.525023272
     ( 2.098615192)     ( 1.336184773)     ( 1.336184773)

 Bond angles

  1-2-4   92.91108736   2-1-3   92.91108736

 NUCLEAR CHARGE:                   34
 NUMBER OF PRIMITIVE AOS:          98
 NUMBER OF SYMMETRY AOS:           96
 NUMBER OF CONTRACTIONS:           46   (   17Ag  +    6Au  +   17Bu  +    6Bg  )
 NUMBER OF INNER CORE ORBITALS:     2   (    1Ag  +    0Au  +    1Bu  +    0Bg  )
 NUMBER OF OUTER CORE ORBITALS:     8   (    3Ag  +    1Au  +    3Bu  +    1Bg  )
 NUMBER OF VALENCE ORBITALS:       10   (    4Ag  +    1Au  +    4Bu  +    1Bg  )


 NUCLEAR REPULSION ENERGY   84.03202221

 Eigenvalues of metric

         1 0.204E-01 0.635E-01 0.753E-01 0.858E-01 0.154E+00 0.576E+00 0.930E+00 0.998E+00
         2 0.109E+00 0.640E+00 0.100E+01 0.112E+01 0.127E+01 0.250E+01
         3 0.947E-02 0.453E-01 0.810E-01 0.982E-01 0.130E+00 0.337E+00 0.701E+00 0.916E+00
         4 0.874E-01 0.637E+00 0.804E+00 0.100E+01 0.123E+01 0.162E+01


 Contracted 2-electron integrals neglected if value below      1.0D-11
 AO integral compression algorithm  1   Integral accuracy      1.0D-11

     1.573 MB (compressed) written to integral file ( 60.9%)


 NUMBER OF SORTED TWO-ELECTRON INTEGRALS:     165342.     BUFFER LENGTH:  32768
 NUMBER OF SEGMENTS:   1  SEGMENT LENGTH:     165342      RECORD LENGTH: 524288

 Memory used in sort:       0.72 MW

 SORT1 READ      291376. AND WROTE      165342. INTEGRALS IN      1 RECORDS. CPU TIME:     0.00 SEC, REAL TIME:     0.01 SEC
 SORT2 READ      165342. AND WROTE      165342. INTEGRALS IN      6 RECORDS. CPU TIME:     0.03 SEC, REAL TIME:     0.03 SEC

 FILE SIZES:   FILE 1:    31.7 MBYTE,  FILE 4:     4.3 MBYTE,   TOTAL:     35.9 MBYTE

 OPERATOR DM      FOR CENTER  0  COORDINATES:    0.000000    0.000000    0.000000


 **********************************************************************************************************************************
 DATASETS  * FILE   NREC   LENGTH (MB)   RECORD NAMES
              1      19       29.45       500      610      700      900      950      970     1000      129      960     1100   
                                          VAR    BASINP    GEOM    SYMINP    ZMAT    AOBASIS   BASIS     P2S    ABASIS      S 
                                         1400     1410     1200     1210     1080     1600     1650     1300     1700   
                                           T        V       H0       H01     AOSYM     SMH    MOLCAS    ERIS     OPER   

 PROGRAMS   *        TOTAL       INT
 CPU TIMES  *         0.59      0.46
 REAL TIME  *         1.59 SEC
 DISK USED  *        34.64 MB
 **********************************************************************************************************************************


 Program * Restricted Hartree-Fock

 Orbital guess generated from atomic densities. Full valence occupancy:    8   2   8   2

 Initial occupancy:   7   2   6   2

 NELEC=   34   SYM=1   MS2= 0   THRE=1.0D-08   THRD=3.2D-06   THRG=3.2D-06  HFMA2=F  DIIS_START=2   DIIS_MAX=10   DIIS_INCORE=F

 Level shifts:    0.00 (CLOSED)    0.00 (OPEN)    0.30 (GAP_MIN)

 ITER           ETOT              DE          GRAD        DDIFF     DIIS  NEXP   TIME(IT)  TIME(TOT)  DIAG
   1     -796.19013183    -796.19013183     0.00D+00     0.43D+00     0     0       0.01      0.01    start
   2     -796.21278030      -0.02264847     0.93D-02     0.25D-01     1     0       0.00      0.01    diag
   3     -796.21441347      -0.00163317     0.24D-02     0.43D-02     2     0       0.00      0.01    diag
   4     -796.21466844      -0.00025497     0.80D-03     0.22D-02     3     0       0.00      0.01    diag
   5     -796.21468348      -0.00001504     0.19D-03     0.52D-03     4     0       0.00      0.01    diag
   6     -796.21468429      -0.00000081     0.42D-04     0.16D-03     5     0       0.00      0.01    diag
   7     -796.21468432      -0.00000003     0.75D-05     0.31D-04     6     0       0.00      0.01    diag
   8     -796.21468432      -0.00000000     0.11D-05     0.44D-05     7     0       0.01      0.02    fixocc
   9     -796.21468432      -0.00000000     0.26D-06     0.95D-06     8     0       0.00      0.02    diag
  10     -796.21468432      -0.00000000     0.41D-07     0.11D-06     0     0       0.00      0.02    diag/orth

 Final occupancy:   7   2   6   2

 !RHF STATE 1.1 Energy               -796.214684322715
  RHF One-electron energy           -1267.961530776574
  RHF Two-electron energy             387.714824246589
  RHF Kinetic energy                  796.293461427474
  RHF Nuclear energy                   84.032022207271
  RHF Virial quotient                  -0.999901070260

 !RHF STATE 1.1 Dipole moment           0.00000000     0.00000000     0.00000000
 Dipole moment /Debye                   0.00000000     0.00000000     0.00000000

 Orbital energies:

           1.1          2.1          3.1          4.1          5.1          6.1          7.1          8.1          9.1
    -91.984624    -8.987025    -6.668812    -6.667441    -1.054711    -0.554259    -0.453929     0.136271     0.467750

           1.2          2.2          3.2          4.2
     -6.664265    -0.456750     0.661806     0.683710

           1.3          2.3          3.3          4.3          5.3          6.3          7.3          8.3
    -91.984622    -8.986903    -6.668590    -6.667373    -0.890266    -0.579778     0.103585     0.182617

           1.4          2.4          3.4          4.4
     -6.664242    -0.332350     0.715131     0.733371


 HOMO      2.4    -0.332350 =      -9.0437eV
 LUMO      7.3     0.103585 =       2.8187eV
 LUMO-HOMO         0.435935 =      11.8624eV

 Orbitals saved in record  2100.2


 **********************************************************************************************************************************
 DATASETS  * FILE   NREC   LENGTH (MB)   RECORD NAMES
              1      19       29.45       500      610      700      900      950      970     1000      129      960     1100   
                                          VAR    BASINP    GEOM    SYMINP    ZMAT    AOBASIS   BASIS     P2S    ABASIS      S 
                                         1400     1410     1200     1210     1080     1600     1650     1300     1700   
                                           T        V       H0       H01     AOSYM     SMH    MOLCAS    ERIS     OPER   

              2       4        0.44       700     1000      520     2100   
                                         GEOM     BASIS   MCVARS     RHF  

 PROGRAMS   *        TOTAL    HF-SCF       INT
 CPU TIMES  *         0.61      0.02      0.46
 REAL TIME  *         1.63 SEC
 DISK USED  *        34.64 MB
 **********************************************************************************************************************************


 PROGRAM * CCSD (Closed-shell coupled cluster)     Authors: C. Hampel, H.-J. Werner, 1991, M. Deegan, P.J. Knowles, 1992


 Convergence thresholds:  THRVAR = 1.00D-08  THRDEN = 1.00D-06

 Number of core orbitals:          10 (   4   1   4   1 )
 Number of closed-shell orbitals:   7 (   3   1   2   1 )
 Number of external orbitals:      29 (  10   4  11   4 )

 Molecular orbitals read from record     2100.2  Type=RHF/CANONICAL  

 Number of N-1 electron functions:               7
 Number of N-2 electron functions:              28
 Number of singly external CSFs:                60
 Number of doubly external CSFs:              5443
 Total number of CSFs:                        5504

 Length of J-op  integral file:               0.00 MB
 Length of K-op  integral file:               0.11 MB
 Length of 3-ext integral record:             0.00 MB

 Integral transformation finished. Total CPU:   0.00 sec, npass=  1  Memory used:   0.12 MW

 Reference energy:                   -796.21468432

 MP2 singlet pair energy:              -0.17294638
 MP2 triplet pair energy:              -0.09536450
 MP2 correlation energy:               -0.26831087
 MP2 total energy:                   -796.48299520

 SCS-MP2 correlation energy:           -0.26687356   (PS=  1.200000  PT=  0.333333)
 SCS-MP2 total energy:               -796.48155788

 ITER.      SQ.NORM     CORR.ENERGY   TOTAL ENERGY   ENERGY CHANGE        DEN1      VAR(S)    VAR(P)  DIIS     TIME  TIME/IT
   1      1.13817065    -0.29994364  -796.51462796    -0.03163277    -0.02264138  0.83D-03  0.22D-02  1  1     0.85     0.01
   2      1.15212086    -0.30250095  -796.51718527    -0.00255731    -0.01050619  0.23D-04  0.15D-03  2  2     0.87     0.01
   3      1.15440228    -0.30254472  -796.51722904    -0.00004377    -0.00087101  0.53D-05  0.12D-04  3  3     0.87     0.01
   4      1.15520279    -0.30256514  -796.51724946    -0.00002042    -0.00020066  0.50D-06  0.98D-06  4  4     0.89     0.01
   5      1.15535886    -0.30256532  -796.51724964    -0.00000018    -0.00002738  0.85D-07  0.11D-06  5  5     0.90     0.01
   6      1.15539718    -0.30256196  -796.51724628     0.00000336    -0.00000554  0.13D-07  0.13D-07  6  6     0.91     0.01
   7      1.15540504    -0.30256237  -796.51724669    -0.00000041     0.00000050  0.73D-09  0.16D-08  6  1     0.92     0.01
   8      1.15540652    -0.30256232  -796.51724664     0.00000006     0.00000016  0.73D-10  0.15D-09  6  2     0.93     0.01

 Norm of t1 vector:      0.04616689      S-energy:    -0.00000012      T1 diagnostic:  0.00872472
                                                                       D1 diagnostic:  0.02135881
                                                                       D2 diagnostic:  0.16378853 (internal)

 Doubles amplitudes (print threshold =  0.500E-01):

         I         J         SYM. A    SYM. B    A         B      T(IJ, AB)

         3         3         3         3         1         1     -0.07346878


 RESULTS
 =======

  Reference energy                   -796.214684322715
  CCSD singlet pair energy             -0.211162848546
  CCSD triplet pair energy             -0.091399347221
  CCSD correlation energy              -0.302562316040

 !CCSD total energy                  -796.517246638755

 Timing summary (sec):

 STEP                 CPU(USER)    SYS     CPU(TOT)    WALL
 Transformation          0.01      0.00      0.01      0.02
 CCSD iterations         0.93      0.01      0.94      0.11

 Program statistics:

 Available memory in ccsd:               805306165
 Min. memory needed in ccsd:                 24955
 Max. memory used in ccsd:                   27176
 Max. memory used in cckext:                 73636 ( 8 integral passes)



 **********************************************************************************************************************************
 DATASETS  * FILE   NREC   LENGTH (MB)   RECORD NAMES
              1      20       29.82       500      610      700      900      950      970     1000      129      960     1100   
                                          VAR    BASINP    GEOM    SYMINP    ZMAT    AOBASIS   BASIS     P2S    ABASIS      S 
                                         1400     1410     1200     1210     1080     1600     1650     1300     1700     1380   
                                           T        V       H0       H01     AOSYM     SMH    MOLCAS    ERIS     OPER     JKOP   

              2       4        0.44       700     1000      520     2100   
                                         GEOM     BASIS   MCVARS     RHF  

 PROGRAMS   *        TOTAL      CCSD    HF-SCF       INT
 CPU TIMES  *         0.76      0.15      0.02      0.46
 REAL TIME  *         1.80 SEC
 DISK USED  *        34.64 MB
 **********************************************************************************************************************************

 Dump information in style XML to xml output                                                                      

 Orbitals will not be exported.

 **********************************************************************************************************************************

 CCSD/cc-pVDZ energy=   -796.517246638755

            CCSD          HF-SCF
   -796.51724664   -796.21468432
 **********************************************************************************************************************************
 Molpro calculation terminated
