
 Working directory              : /home/jovyan/scratch/molpro.ysdqSbnrjj/
 Global scratch directory       : /home/jovyan/scratch/molpro.ysdqSbnrjj/
 Wavefunction directory         : /home/jovyan/wfu/
 Main file repository           : /home/jovyan/scratch/molpro.ysdqSbnrjj/

 id        : cardiff

 Nodes                nprocs
 jupyter-c-2efrancisan    1
 GA implementation: MPI file
 GA implementation (serial work in mppx): MPI file

 Using customized tuning parameters: mindgm=1; mindgv=20; mindgc=4; mindgr=1; noblas=0; minvec=7
 default implementation of scratch files=df  


 Variables initialized (1031), CPU time= 0.00 sec
 
 
 
 geometry={
 9
  C 0.000000 0.471708 0.000000
  H -0.276412 1.522311 0.000000
  C -1.134329 -0.504429 0.000000
  H -0.776700 -1.534190 0.000000
  H -1.772470 -0.363824 0.876336
  H -1.772470 -0.363824 -0.876336
  C 1.287947 0.151466 0.000000
  H 2.060505 0.908567 0.000000
  H 1.615839 -0.881516 0.000000
 }
 basis=cc-pVDZ
 angstrom
 
 
 hf; ccsd
 
 
 
 {put,xml;noorbitals,nobasis}
 Commands initialized (841), CPU time= 0.01 sec, 704 directives.
 Default parameters read. Elapsed time= 0.08 sec

 Checking input...
 Passed
1


                                         ***  PROGRAM SYSTEM MOLPRO  ***
                                       Copyright, TTI GmbH Stuttgart, 2015
                                    Version 2023.1 linked Mon Jun  5 13:27:10 2023


 **********************************************************************************************************************************
 LABEL *                                                                                                                                                                 
  (16 PROC) 64 bit serial version                                                        DATE: 02-Aug-23          TIME: 15:48:50  
 **********************************************************************************************************************************

 SHA1:             9738a14712571edd23541b6d7c4f3a3d766f8287
 **********************************************************************************************************************************

 Memory per process:       805 MW
 Total memory per node:   1074 MW
 Total GA space:           268 MW

 GA preallocation disabled
 GA check enabled

 Geometry recognized as XYZ


 Variable memory set to 805.3 MW

 SETTING BASIS          =    CC-PVDZ


 Recomputing integrals since basis changed


 Using spherical harmonics

 Library entry C      S cc-pVDZ              selected for orbital group  1
 Library entry C      P cc-pVDZ              selected for orbital group  1
 Library entry C      D cc-pVDZ              selected for orbital group  1
 Library entry H      S cc-pVDZ              selected for orbital group  2
 Library entry H      P cc-pVDZ              selected for orbital group  2


 PROGRAM * SEWARD (Integral evaluation for generally contracted gaussian basis sets)     Author: Roland Lindh, 1990

 Geometry written to block  1 of record 700


 Point group  Cs  



 ATOMIC COORDINATES

 NR  ATOM    CHARGE       X              Y              Z

   1  C       6.00    0.000000000    0.891398931    0.000000000
   2  H       1.00   -0.522342978    2.876750867    0.000000000
   3  C       6.00   -2.143571145   -0.953232659    0.000000000
   4  H       1.00   -1.467750281   -2.899198923    0.000000000
   5  H       1.00   -3.349482864   -0.687527718    1.656035033
   6  H       1.00   -3.349482864   -0.687527718   -1.656035033
   7  C       6.00    2.433867093    0.286229257    0.000000000
   8  H       1.00    3.893790128    1.716942796    0.000000000
   9  H       1.00    3.053493171   -1.665823814    0.000000000

 Bond lengths in Bohr (Angstrom)

 1-2  2.052916095  1-3  2.827996280  1-7  2.507975151  3-4  2.059980228  3-5  2.065738178
     ( 1.086356414)     ( 1.496511184)     ( 1.327163296)     ( 1.090094592)     ( 1.093141568)

 3-6  2.065738178  7-8  2.044093075  7-9  2.048035076
     ( 1.093141568)     ( 1.081687472)     ( 1.083773489)

 Bond angles

  1-3-4  111.56158910   1-3-5  111.01344925   1-3-6  111.01344925   1-7-8  121.61577775

  1-7-9  121.57379183   2-1-3  115.97297962   2-1-7  118.70354514   3-1-7  125.32347524

  4-3-5  108.24152514   4-3-6  108.24152514   5-3-6  106.57925455   8-7-9  116.81043042

 NUCLEAR CHARGE:                   24
 NUMBER OF PRIMITIVE AOS:         123
 NUMBER OF SYMMETRY AOS:          120
 NUMBER OF CONTRACTIONS:           72   (   51A'  +   21A"  )
 NUMBER OF INNER CORE ORBITALS:     0   (    0A'  +    0A"  )
 NUMBER OF OUTER CORE ORBITALS:     3   (    3A'  +    0A"  )
 NUMBER OF VALENCE ORBITALS:       18   (   14A'  +    4A"  )


 NUCLEAR REPULSION ENERGY   70.88807056

 Eigenvalues of metric

         1 0.263E-02 0.406E-02 0.147E-01 0.165E-01 0.209E-01 0.286E-01 0.348E-01 0.369E-01
         2 0.367E-01 0.450E-01 0.951E-01 0.137E+00 0.189E+00 0.270E+00 0.332E+00 0.375E+00


 Contracted 2-electron integrals neglected if value below      1.0D-11
 AO integral compression algorithm  1   Integral accuracy      1.0D-11

     9.699 MB (compressed) written to integral file ( 57.0%)


 NUMBER OF SORTED TWO-ELECTRON INTEGRALS:    1825515.     BUFFER LENGTH:  32768
 NUMBER OF SEGMENTS:   1  SEGMENT LENGTH:    1825515      RECORD LENGTH: 524288

 Memory used in sort:       2.38 MW

 SORT1 READ     2080440. AND WROTE     1804792. INTEGRALS IN      6 RECORDS. CPU TIME:     0.04 SEC, REAL TIME:     0.15 SEC
 SORT2 READ     1804792. AND WROTE     1825515. INTEGRALS IN     37 RECORDS. CPU TIME:     0.07 SEC, REAL TIME:     0.09 SEC

 FILE SIZES:   FILE 1:    40.0 MBYTE,  FILE 4:    25.2 MBYTE,   TOTAL:     65.2 MBYTE

 OPERATOR DM      FOR CENTER  0  COORDINATES:    0.000000    0.000000    0.000000


 **********************************************************************************************************************************
 DATASETS  * FILE   NREC   LENGTH (MB)   RECORD NAMES
              1      19       36.56       500      610      700      900      950      970     1000      129      960     1100   
                                          VAR    BASINP    GEOM    SYMINP    ZMAT    AOBASIS   BASIS     P2S    ABASIS      S 
                                         1400     1410     1200     1210     1080     1600     1650     1300     1700   
                                           T        V       H0       H01     AOSYM     SMH    MOLCAS    ERIS     OPER   

 PROGRAMS   *        TOTAL       INT
 CPU TIMES  *         1.20      1.06
 REAL TIME  *         2.46 SEC
 DISK USED  *        62.65 MB
 **********************************************************************************************************************************


 Program * Restricted Hartree-Fock

 Orbital guess generated from atomic densities. Full valence occupancy:   17   4

 Initial occupancy:  10   2

 NELEC=   24   SYM=1   MS2= 0   THRE=1.0D-08   THRD=3.2D-06   THRG=3.2D-06  HFMA2=F  DIIS_START=2   DIIS_MAX=10   DIIS_INCORE=F

 Level shifts:    0.00 (CLOSED)    0.00 (OPEN)    0.30 (GAP_MIN)

 ITER           ETOT              DE          GRAD        DDIFF     DIIS  NEXP   TIME(IT)  TIME(TOT)  DIAG
   1     -117.04317084    -117.04317084     0.00D+00     0.16D+00     0     0       0.01      0.03    start
   2     -117.07817351      -0.03500267     0.72D-02     0.16D-01     1     0       0.02      0.05    diag
   3     -117.08187967      -0.00370616     0.25D-02     0.53D-02     2     0       0.01      0.06    diag
   4     -117.08239327      -0.00051360     0.75D-03     0.19D-02     3     0       0.02      0.08    diag
   5     -117.08240122      -0.00000795     0.86D-04     0.29D-03     4     0       0.02      0.10    diag
   6     -117.08240161      -0.00000038     0.21D-04     0.63D-04     5     0       0.01      0.11    diag
   7     -117.08240166      -0.00000005     0.62D-05     0.17D-04     6     0       0.02      0.13    diag
   8     -117.08240167      -0.00000001     0.29D-05     0.87D-05     7     0       0.01      0.14    fixocc
   9     -117.08240167      -0.00000000     0.79D-06     0.25D-05     8     0       0.02      0.16    diag
  10     -117.08240167      -0.00000000     0.42D-06     0.97D-06     0     0       0.02      0.18    diag/orth

 Final occupancy:  10   2

 !RHF STATE 1.1 Energy               -117.082401669266
  RHF One-electron energy            -296.770044547978
  RHF Two-electron energy             108.799572323689
  RHF Kinetic energy                  116.939995811941
  RHF Nuclear energy                   70.888070555023
  RHF Virial quotient                  -1.001217768620

 !RHF STATE 1.1 Dipole moment          -0.14738857    -0.00837857     0.00000000
 Dipole moment /Debye                  -0.37462438    -0.02129621     0.00000000

 Orbital energies:

           1.1          2.1          3.1          4.1          5.1          6.1          7.1          8.1          9.1         10.1
    -11.235671   -11.227255   -11.221797    -1.064350    -0.932678    -0.755237    -0.636515    -0.581014    -0.521427    -0.487029

          11.1         12.1
      0.194378     0.222314

           1.2          2.2          3.2          4.2
     -0.564823    -0.357644     0.180061     0.267687


 HOMO      2.2    -0.357644 =      -9.7320eV
 LUMO      3.2     0.180061 =       4.8997eV
 LUMO-HOMO         0.537705 =      14.6317eV

 Orbitals saved in record  2100.2


 **********************************************************************************************************************************
 DATASETS  * FILE   NREC   LENGTH (MB)   RECORD NAMES
              1      19       36.56       500      610      700      900      950      970     1000      129      960     1100   
                                          VAR    BASINP    GEOM    SYMINP    ZMAT    AOBASIS   BASIS     P2S    ABASIS      S 
                                         1400     1410     1200     1210     1080     1600     1650     1300     1700   
                                           T        V       H0       H01     AOSYM     SMH    MOLCAS    ERIS     OPER   

              2       4        0.56       700     1000      520     2100   
                                         GEOM     BASIS   MCVARS     RHF  

 PROGRAMS   *        TOTAL    HF-SCF       INT
 CPU TIMES  *         1.38      0.18      1.06
 REAL TIME  *         2.70 SEC
 DISK USED  *        62.65 MB
 **********************************************************************************************************************************


 PROGRAM * CCSD (Closed-shell coupled cluster)     Authors: C. Hampel, H.-J. Werner, 1991, M. Deegan, P.J. Knowles, 1992


 Convergence thresholds:  THRVAR = 1.00D-08  THRDEN = 1.00D-06

 Number of core orbitals:           3 (   3   0 )
 Number of closed-shell orbitals:   9 (   7   2 )
 Number of external orbitals:      60 (  41  19 )

 Molecular orbitals read from record     2100.2  Type=RHF/CANONICAL  

 Number of N-1 electron functions:               9
 Number of N-2 electron functions:              45
 Number of singly external CSFs:               325
 Number of doubly external CSFs:             76195
 Total number of CSFs:                       76521

 Length of J-op  integral file:               0.00 MB
 Length of K-op  integral file:               0.27 MB
 Length of 3-ext integral record:             0.00 MB

 Integral transformation finished. Total CPU:   0.07 sec, npass=  1  Memory used:   0.77 MW

 Reference energy:                   -117.08240167

 MP2 singlet pair energy:              -0.27605300
 MP2 triplet pair energy:              -0.14083972
 MP2 correlation energy:               -0.41689272
 MP2 total energy:                   -117.49929439

 SCS-MP2 correlation energy:           -0.41889721   (PS=  1.200000  PT=  0.333333)
 SCS-MP2 total energy:               -117.50129888

 ITER.      SQ.NORM     CORR.ENERGY   TOTAL ENERGY   ENERGY CHANGE        DEN1      VAR(S)    VAR(P)  DIIS     TIME  TIME/IT
   1      1.17109131    -0.45538594  -117.53778761    -0.03849322    -0.02564924  0.14D-02  0.29D-02  1  1     1.94     0.15
   2      1.18760489    -0.45893898  -117.54134065    -0.00355303    -0.01414563  0.34D-04  0.31D-03  2  2     2.07     0.15
   3      1.19199209    -0.45919068  -117.54159235    -0.00025170    -0.00193100  0.98D-05  0.32D-04  3  3     2.20     0.15
   4      1.19383661    -0.45925364  -117.54165531    -0.00006297    -0.00054343  0.48D-06  0.29D-05  4  4     2.34     0.15
   5      1.19423714    -0.45925378  -117.54165545    -0.00000014    -0.00008201  0.42D-07  0.26D-06  5  5     2.47     0.15
   6      1.19429755    -0.45925074  -117.54165241     0.00000305    -0.00000818  0.82D-08  0.15D-07  6  6     2.61     0.15
   7      1.19430548    -0.45925114  -117.54165281    -0.00000040     0.00000116  0.14D-08  0.12D-08  6  2     2.75     0.15
   8      1.19430724    -0.45925107  -117.54165274     0.00000007    -0.00000026  0.24D-09  0.11D-09  6  1     2.89     0.15

 Norm of t1 vector:      0.05413936      S-energy:    -0.00000009      T1 diagnostic:  0.00902323
                                                                       D1 diagnostic:  0.02922849
                                                                       D2 diagnostic:  0.19212283 (internal)

 Doubles amplitudes (print threshold =  0.500E-01):

         I         J         SYM. A    SYM. B    A         B      T(IJ, AB)

         9         9         2         2         1         1     -0.12311641


 RESULTS
 =======

  Reference energy                   -117.082401669266
  CCSD singlet pair energy             -0.329041359620
  CCSD triplet pair energy             -0.130209624581
  CCSD correlation energy              -0.459251071022

 !CCSD total energy                  -117.541652740288

 Timing summary (sec):

 STEP                 CPU(USER)    SYS     CPU(TOT)    WALL
 Transformation          0.08      0.01      0.09      0.27
 CCSD iterations         2.82      0.11      2.93      1.22

 Program statistics:

 Available memory in ccsd:               805306034
 Min. memory needed in ccsd:                245128
 Max. memory used in ccsd:                  304989
 Max. memory used in cckext:                356528 ( 8 integral passes)



 **********************************************************************************************************************************
 DATASETS  * FILE   NREC   LENGTH (MB)   RECORD NAMES
              1      20       41.92       500      610      700      900      950      970     1000      129      960     1100   
                                          VAR    BASINP    GEOM    SYMINP    ZMAT    AOBASIS   BASIS     P2S    ABASIS      S 
                                         1400     1410     1200     1210     1080     1600     1650     1300     1700     1380   
                                           T        V       H0       H01     AOSYM     SMH    MOLCAS    ERIS     OPER     JKOP   

              2       4        0.56       700     1000      520     2100   
                                         GEOM     BASIS   MCVARS     RHF  

 PROGRAMS   *        TOTAL      CCSD    HF-SCF       INT
 CPU TIMES  *         2.60      1.22      0.18      1.06
 REAL TIME  *         4.36 SEC
 DISK USED  *        62.65 MB
 **********************************************************************************************************************************

 Dump information in style XML to xml output                                                                      

 Orbitals will not be exported.

 **********************************************************************************************************************************

 CCSD/cc-pVDZ energy=   -117.541652740288

            CCSD          HF-SCF
   -117.54165274   -117.08240167
 **********************************************************************************************************************************
 Molpro calculation terminated
