
 Working directory              : /home/jovyan/scratch/molpro.WABOYIUylQ/
 Global scratch directory       : /home/jovyan/scratch/molpro.WABOYIUylQ/
 Wavefunction directory         : /home/jovyan/wfu/
 Main file repository           : /home/jovyan/scratch/molpro.WABOYIUylQ/

 id        : cardiff

 Nodes                nprocs
 jupyter-c-2efrancisan    1
 GA implementation: MPI file
 GA implementation (serial work in mppx): MPI file

 Using customized tuning parameters: mindgm=1; mindgv=20; mindgc=4; mindgr=1; noblas=0; minvec=7
 default implementation of scratch files=df  


 Variables initialized (1031), CPU time= 0.01 sec
 
 
 
 geometry={
 12
  3NH3TS (Full point group Cs)
  H 0.000000 1.039215 0.000000
  H 0.975536 -0.391735 0.000000
  H -0.718624 -0.750749 0.000000
  H 1.615871 1.288560 0.821991
  H 0.276209 -2.048201 -0.821994
  H -1.974443 0.792779 -0.810562
  N 1.170289 0.899018 0.000000
  N 0.223683 -1.458692 0.000000
  N -1.407141 0.564959 0.000000
  H 0.276209 -2.048201 0.821994
  H -1.974443 0.792779 0.810562
  H 1.615871 1.288560 -0.821991
 }
 basis=cc-pVTZ
 angstrom
 
 
 hf; papt;mp4
 
 
 
 {put,xml;noorbitals,nobasis}
 Commands initialized (841), CPU time= 0.01 sec, 704 directives.
 Default parameters read. Elapsed time= 0.08 sec

 Checking input...
 Passed
1


                                         ***  PROGRAM SYSTEM MOLPRO  ***
                                       Copyright, TTI GmbH Stuttgart, 2015
                                    Version 2023.1 linked Mon Jun  5 13:27:10 2023


 **********************************************************************************************************************************
 LABEL *                                                                                                                                                                 
  (16 PROC) 64 bit serial version                                                        DATE: 03-Aug-23          TIME: 13:21:44  
 **********************************************************************************************************************************

 SHA1:             9738a14712571edd23541b6d7c4f3a3d766f8287
 **********************************************************************************************************************************

 Memory per process:       805 MW
 Total memory per node:   1074 MW
 Total GA space:           268 MW

 GA preallocation disabled
 GA check enabled

 Geometry recognized as XYZ


 Variable memory set to 805.3 MW

 SETTING BASIS          =    CC-PVTZ


 Recomputing integrals since basis changed


 Using spherical harmonics

 Library entry H      S cc-pVTZ              selected for orbital group  1
 Library entry H      P cc-pVTZ              selected for orbital group  1
 Library entry H      D cc-pVTZ              selected for orbital group  1
 Library entry N      S cc-pVTZ              selected for orbital group  2
 Library entry N      P cc-pVTZ              selected for orbital group  2
 Library entry N      D cc-pVTZ              selected for orbital group  2
 Library entry N      F cc-pVTZ              selected for orbital group  2


 PROGRAM * SEWARD (Integral evaluation for generally contracted gaussian basis sets)     Author: Roland Lindh, 1990

 Geometry written to block  1 of record 700


 Point group  Cs  



 ATOMIC COORDINATES

 NR  ATOM    CHARGE       X              Y              Z

   1  H       1.00    0.000000000    1.963831735    0.000000000
   2  H       1.00    1.843495865   -0.740271863    0.000000000
   3  H       1.00   -1.358002547   -1.418709998    0.000000000
   4  H       1.00    3.053553643    2.435025495    1.553337867
   5  H       1.00    3.053553643    2.435025495   -1.553337867
   6  H       1.00    0.521959363   -3.870538938   -1.553343536
   7  H       1.00    0.521959363   -3.870538938    1.553343536
   8  H       1.00   -3.731156519    1.498135187   -1.531740187
   9  H       1.00   -3.731156519    1.498135187    1.531740187
  10  N       7.00    2.211525697    1.698897801    0.000000000
  11  N       7.00    0.422699609   -2.756528380    0.000000000
  12  N       7.00   -2.659111109    1.067617782    0.000000000

 Bond lengths in Bohr (Angstrom)

  1-10  2.227338299   2-10  2.466778184   2-11  2.466566914   3-11  2.227253508   4-10  1.914093408
       ( 1.178656669)       ( 1.305362799)       ( 1.305251000)       ( 1.178611799)       ( 1.012894611)

  5-10  1.914093408   6-11  1.914091994   7-11  1.914091994   8-12  1.918555341   9-12  1.918555341
       ( 1.012894611)       ( 1.012893863)       ( 1.012893863)       ( 1.015255765)       ( 1.015255765)

 Bond angles

  1-10- 2   88.25105007   1-10- 4  113.01933305   1-10- 5  113.01933305   2-10- 4  116.48162287

  2-10- 5  116.48162287   2-11- 3   88.25415736   2-11- 6  116.47963378   2-11- 7  116.47963378

  3-11- 6  113.01961520   3-11- 7  113.01961520   4-10- 5  108.49072284   6-11- 7  108.49142118

  8-12- 9  105.95175618  10- 2-11  153.40903249

 NUCLEAR CHARGE:                   30
 NUMBER OF PRIMITIVE AOS:         294
 NUMBER OF SYMMETRY AOS:          270
 NUMBER OF CONTRACTIONS:          216   (  132A'  +   84A"  )
 NUMBER OF INNER CORE ORBITALS:     0   (    0A'  +    0A"  )
 NUMBER OF OUTER CORE ORBITALS:     3   (    3A'  +    0A"  )
 NUMBER OF VALENCE ORBITALS:       21   (   15A'  +    6A"  )


 NUCLEAR REPULSION ENERGY   94.97821859


 Eigenvalues of metric

         1 0.127E-02 0.133E-02 0.177E-02 0.274E-02 0.286E-02 0.299E-02 0.434E-02 0.468E-02
         2 0.218E-02 0.232E-02 0.405E-02 0.766E-02 0.810E-02 0.828E-02 0.305E-01 0.322E-01


 Contracted 2-electron integrals neglected if value below      1.0D-11
 AO integral compression algorithm  1   Integral accuracy      1.0D-11

     488.112 MB (compressed) written to integral file ( 39.7%)


 NUMBER OF SORTED TWO-ELECTRON INTEGRALS:  138917646.     BUFFER LENGTH:  32768
 NUMBER OF SEGMENTS:   9  SEGMENT LENGTH:   15998004      RECORD LENGTH: 524288

 Memory used in sort:      16.56 MW

 SORT1 READ   153842344. AND WROTE   118920561. INTEGRALS IN    344 RECORDS. CPU TIME:     2.44 SEC, REAL TIME:     3.93 SEC
 SORT2 READ   118920561. AND WROTE   138917646. INTEGRALS IN   1862 RECORDS. CPU TIME:     2.77 SEC, REAL TIME:     3.34 SEC

 FILE SIZES:   FILE 1:   519.5 MBYTE,  FILE 4:  1442.9 MBYTE,   TOTAL:   1962.4 MBYTE

 OPERATOR DM      FOR CENTER  0  COORDINATES:    0.000000    0.000000    0.000000


 **********************************************************************************************************************************
 DATASETS  * FILE   NREC   LENGTH (MB)   RECORD NAMES
              1      19      466.41       500      610      700      900      950      970     1000      129      960     1100   
                                          VAR    BASINP    GEOM    SYMINP    ZMAT    AOBASIS   BASIS     P2S    ABASIS      S 
                                         1400     1410     1200     1210     1080     1600     1650     1300     1700   
                                           T        V       H0       H01     AOSYM     SMH    MOLCAS    ERIS     OPER   

 PROGRAMS   *        TOTAL       INT
 CPU TIMES  *        18.97     18.84
 REAL TIME  *        28.97 SEC
 DISK USED  *         1.83 GB
 **********************************************************************************************************************************


 Program * Restricted Hartree-Fock

 Orbital guess generated from atomic densities. Full valence occupancy:   18   6

 Initial occupancy:  12   3

 NELEC=   30   SYM=1   MS2= 0   THRE=1.0D-08   THRD=3.2D-06   THRG=3.2D-06  HFMA2=F  DIIS_START=2   DIIS_MAX=10   DIIS_INCORE=F

 Level shifts:    0.00 (CLOSED)    0.00 (OPEN)    0.30 (GAP_MIN)

 ITER           ETOT              DE          GRAD        DDIFF     DIIS  NEXP   TIME(IT)  TIME(TOT)  DIAG
   1     -168.49007377    -168.49007377     0.00D+00     0.65D-01     0     0       1.16      2.31    start
   2     -168.54044575      -0.05037198     0.64D-02     0.98D-02     1     0       1.18      3.49    diag
   3     -168.55620245      -0.01575671     0.34D-02     0.33D-02     2     0       1.17      4.66    diag
   4     -168.55686386      -0.00066141     0.55D-03     0.70D-03     3     0       1.19      5.85    diag
   5     -168.55690691      -0.00004305     0.15D-03     0.16D-03     4     0       1.21      7.06    diag
   6     -168.55691221      -0.00000530     0.45D-04     0.70D-04     5     0       1.19      8.25    diag
   7     -168.55691242      -0.00000021     0.78D-05     0.14D-04     6     0       1.17      9.42    diag
   8     -168.55691244      -0.00000002     0.21D-05     0.48D-05     7     0       1.19     10.61    fixocc
   9     -168.55691244      -0.00000000     0.44D-06     0.11D-05     8     0       1.18     11.79    diag
  10     -168.55691244      -0.00000000     0.81D-07     0.15D-06     0     0       1.17     12.96    diag/orth

 Final occupancy:  12   3

 !RHF STATE 1.1 Energy               -168.556912443950
  RHF One-electron energy            -417.845651527233
  RHF Two-electron energy             154.310520496172
  RHF Kinetic energy                  168.283389367237
  RHF Nuclear energy                   94.978218587111
  RHF Virial quotient                  -1.001625371807

 !RHF STATE 1.1 Dipole moment           0.88751122    -0.35661218     0.00000000
 Dipole moment /Debye                   2.25582853    -0.90641774     0.00000000

 Orbital energies:

           1.1          2.1          3.1          4.1          5.1          6.1          7.1          8.1          9.1         10.1
    -15.534539   -15.534498   -15.448208    -1.160508    -1.117893    -1.027138    -0.688052    -0.594840    -0.588764    -0.404393

          11.1         12.1         13.1         14.1
     -0.380244    -0.312542     0.132017     0.170222

           1.2          2.2          3.2          4.2          5.2
     -0.641933    -0.630806    -0.547946     0.198201     0.219736


 HOMO     12.1    -0.312542 =      -8.5047eV
 LUMO     13.1     0.132017 =       3.5924eV
 LUMO-HOMO         0.444559 =      12.0971eV

 Orbitals saved in record  2100.2


 **********************************************************************************************************************************
 DATASETS  * FILE   NREC   LENGTH (MB)   RECORD NAMES
              1      19      466.41       500      610      700      900      950      970     1000      129      960     1100   
                                          VAR    BASINP    GEOM    SYMINP    ZMAT    AOBASIS   BASIS     P2S    ABASIS      S 
                                         1400     1410     1200     1210     1080     1600     1650     1300     1700   
                                           T        V       H0       H01     AOSYM     SMH    MOLCAS    ERIS     OPER   

              2       4        0.97       700     1000      520     2100   
                                         GEOM     BASIS   MCVARS     RHF  

 PROGRAMS   *        TOTAL    HF-SCF       INT
 CPU TIMES  *        31.93     12.95     18.84
 REAL TIME  *        43.32 SEC
 DISK USED  *         1.83 GB
 **********************************************************************************************************************************


 PROGRAM * PAPT (Closed-shell)     Authors: C. Hampel, H.-J. Werner, 1991, P.J. Knowles, 2021


 Convergence thresholds:  THRVAR = 1.00D-08  THRDEN = 1.00D-06

 Number of core orbitals:           3 (   3   0 )
 Number of closed-shell orbitals:  12 (   9   3 )
 Number of external orbitals:     201 ( 120  81 )

 Molecular orbitals read from record     2100.2  Type=RHF/CANONICAL  

 Number of N-1 electron functions:              12
 Number of N-2 electron functions:              78
 Number of singly external CSFs:              1323
 Number of doubly external CSFs:           1469331
 Total number of CSFs:                     1470655

 Length of J-op  integral file:               0.00 MB
 Length of K-op  integral file:               1.74 MB

 Integral transformation finished. Total CPU:   2.25 sec, npass=  1  Memory used:   2.16 MW

 Reference energy:                   -168.55691244

                        CORR.ENERGY   TOTAL ENERGY   ENERGY CHANGE
 MP2:                   -0.75277024  -169.30968268    -0.75277024

 SCS-MP2 correlation energy:           -0.74898188   (PS=  1.200000  PT=  0.333333)
 SCS-MP2 total energy:               -169.30589433
 Iteration:   1     0.2148D+00
 Iteration:   2     0.3035D+00
 Iteration:   3     0.5895D-01
 Iteration:   4     0.5165D-01
 Iteration:   5     0.4332D-01
 Iteration:   6     0.1858D-01
 Iteration:   7     0.1678D+00
 Iteration:   8     0.1036D-01
 Iteration:   9     0.9227D-02
 Iteration:  10     0.1217D-01
 Iteration:  11     0.2979D-02
 Iteration:  12     0.8325D-01
 Iteration:  13     0.1111D-02
 Iteration:  14     0.1937D-02
 Iteration:  15     0.4147D-03
 Iteration:  16     0.2320D-03
 Iteration:  17     0.6721D-02
 Iteration:  18     0.6641D-04
 PAPT operator written to  7000.1
 PAPT orbitals and eigenvalues written to  7000.2

 MP3(D):                -0.77549791  -169.33241036    -0.02272767



 RESULTS
 =======

  Reference energy                   -168.556912443951
  MP3 singlet pair energy              -0.526093169047
  MP3 triplet pair energy              -0.249404742910
  MP3 correlation energy               -0.775497911957

 !MP3 total energy                   -169.332410355908

 Timing summary (sec):

 STEP                 CPU(USER)    SYS     CPU(TOT)    WALL
 Transformation          2.33      0.17      2.50      2.84
 CCSD iterations        41.03      0.33     41.36     11.86

 Program statistics:

 Available memory in ccsd:               805305780
 Min. memory needed in ccsd:               3862849
 Max. memory used in ccsd:                 5171215
 Max. memory used in cckext:               5376582 ( 1 integral passes)



 **********************************************************************************************************************************
 DATASETS  * FILE   NREC   LENGTH (MB)   RECORD NAMES
              1      21      488.07       500      610      700      900      950      970     1000      129      960     1100   
                                          VAR    BASINP    GEOM    SYMINP    ZMAT    AOBASIS   BASIS     P2S    ABASIS      S 
                                         1400     1410     1200     1210     1080     1600     1650     1300     1700     1380   
                                           T        V       H0       H01     AOSYM     SMH    MOLCAS    ERIS     OPER     JKOP   
                                         7000   
                                        PAPT AO    

              2       5        1.63       700     1000      520     2100     7000   
                                         GEOM     BASIS   MCVARS     RHF     PAPT   

 PROGRAMS   *        TOTAL      PAPT    HF-SCF       INT
 CPU TIMES  *        43.16     11.22     12.95     18.84
 REAL TIME  *        58.06 SEC
 DISK USED  *         1.83 GB
 **********************************************************************************************************************************


 PROGRAM * MP4 (Closed-shell)     Authors: C. Hampel, H.-J. Werner, 1991, M. Deegan, P.J. Knowles, 1992


 Convergence thresholds:  THRVAR = 1.00D-08  THRDEN = 1.00D-06

 MP4(T)     terms to be evaluated (factor= 0.000)


 Number of core orbitals:           3 (   3   0 )
 Number of closed-shell orbitals:  12 (   9   3 )
 Number of external orbitals:     201 ( 120  81 )

 Molecular orbitals read from record     7000.2  Type=PAPT/CANONICAL (state 1.1)

 Number of N-1 electron functions:              12
 Number of N-2 electron functions:              78
 Number of singly external CSFs:              1323
 Number of doubly external CSFs:           1469331
 Total number of CSFs:                     1470655

 Length of J-op  integral file:               0.00 MB
 Length of K-op  integral file:               1.74 MB

 Memory could be reduced to 61.42 Mwords without degradation in triples

 Integral transformation finished. Total CPU:   6.02 sec, npass=  1  Memory used:  22.51 MW
 Orbital energies read from record       7000.2  Type=PAPT/CANONICAL (state 1.1)

 Reference energy:                   -168.55691244

                        CORR.ENERGY   TOTAL ENERGY   ENERGY CHANGE
 MP2:                   -0.78159485  -169.33850730    -0.78159485

 SCS-MP2 correlation energy:           -0.78002773   (PS=  1.200000  PT=  0.333333)
 SCS-MP2 total energy:               -169.33694018

 MP3(D):                -0.78162748  -169.33853992    -0.00003263
 MP4(DQ):               -0.77260442  -169.32951686     0.00902306
 MP4(SDQ):              -0.77704072  -169.33395317    -0.00443631

 Norm of t1 vector:      0.04921696      S-energy:    -0.00443631      T1 diagnostic:  0.00710386

 Largest off-diagonal element in interal  block of Fock matrix:  0.72D-01
 Largest off-diagonal element in external block of Fock matrix:  0.35D+00


 Total CPU time for triples:    117.13 sec


 RESULTS
 =======

  Reference energy                   -168.556912443951
  MP4(SDQ) singlet pair energy         -0.524736454980
  MP4(SDQ) triplet pair energy         -0.247867961393
  MP4(SDQ) correlation energy          -0.777040723639

  Triples contribution                 -0.033627312558
  Total correlation energy             -0.810668036197

  MP4(SDQ) total energy              -169.333953167590
 !MP4(SDTQ) total energy             -169.367580480148

 Timing summary (sec):

 STEP                 CPU(USER)    SYS     CPU(TOT)    WALL
 Transformation          7.28      0.78      8.06      9.15
 CCSD iterations        50.52      0.29     50.81      7.54
 Triples               117.13      4.82    121.95    123.23

 Program statistics:

 Available memory in ccsd:               805305780
 Min. memory needed in ccsd:               3862849
 Max. memory used in ccsd:                 5171215
 Max. memory used in cckext:               5376582 ( 1 integral passes)



 **********************************************************************************************************************************
 DATASETS  * FILE   NREC   LENGTH (MB)   RECORD NAMES
              1      22      675.63       500      610      700      900      950      970     1000      129      960     1100   
                                          VAR    BASINP    GEOM    SYMINP    ZMAT    AOBASIS   BASIS     P2S    ABASIS      S 
                                         1400     1410     1200     1210     1080     1600     1650     1300     1700     1380   
                                           T        V       H0       H01     AOSYM     SMH    MOLCAS    ERIS     OPER     JKOP   
                                         7000     1380(1)
                                        PAPT AO   JKOP   

              2       5        1.63       700     1000      520     2100     7000   
                                         GEOM     BASIS   MCVARS     RHF     PAPT   

 PROGRAMS   *        TOTAL       MP4      PAPT    HF-SCF       INT
 CPU TIMES  *       174.73    131.56     11.22     12.95     18.84
 REAL TIME  *       198.04 SEC
 DISK USED  *         1.83 GB
 **********************************************************************************************************************************

 Dump information in style XML to xml output                                                                      

 Orbitals will not be exported.

 **********************************************************************************************************************************

 MP4/cc-pVTZ energy=   -169.367580480148

             MP4            PAPT          HF-SCF
   -169.36758048   -169.33241036   -168.55691244
 **********************************************************************************************************************************
 Molpro calculation terminated
