
 Working directory              : /home/jovyan/scratch/molpro.kEIUjBGQp4/
 Global scratch directory       : /home/jovyan/scratch/molpro.kEIUjBGQp4/
 Wavefunction directory         : /home/jovyan/wfu/
 Main file repository           : /home/jovyan/scratch/molpro.kEIUjBGQp4/

 id        : cardiff

 Nodes                nprocs
 jupyter-c-2efrancisan    1
 GA implementation: MPI file
 GA implementation (serial work in mppx): MPI file

 Using customized tuning parameters: mindgm=1; mindgv=20; mindgc=4; mindgr=1; noblas=0; minvec=7
 default implementation of scratch files=df  


 Variables initialized (1031), CPU time= 0.00 sec
 
 
 
 geometry={
            3
     C          0.00000000      0.00000000     -1.11118191
     N          0.00000000      0.00000000      0.05815587
     H          0.00000000      0.00000000      1.05302603
 }
 basis=cc-pVTZ
 angstrom
 
 
 hf; ccsd(t)
 
 
 
 {put,xml;noorbitals,nobasis}
 Commands initialized (841), CPU time= 0.01 sec, 704 directives.
 Default parameters read. Elapsed time= 0.08 sec

 Checking input...
 Passed
1


                                         ***  PROGRAM SYSTEM MOLPRO  ***
                                       Copyright, TTI GmbH Stuttgart, 2015
                                    Version 2023.1 linked Mon Jun  5 13:27:10 2023


 **********************************************************************************************************************************
 LABEL *                                                                                                                                                                 
  (16 PROC) 64 bit serial version                                                        DATE: 02-Aug-23          TIME: 15:53:33  
 **********************************************************************************************************************************

 SHA1:             9738a14712571edd23541b6d7c4f3a3d766f8287
 **********************************************************************************************************************************

 Memory per process:       805 MW
 Total memory per node:   1074 MW
 Total GA space:           268 MW

 GA preallocation disabled
 GA check enabled

 Geometry recognized as XYZ


 Variable memory set to 805.3 MW

 SETTING BASIS          =    CC-PVTZ


 Recomputing integrals since basis changed


 Using spherical harmonics

 Library entry C      S cc-pVTZ              selected for orbital group  1
 Library entry C      P cc-pVTZ              selected for orbital group  1
 Library entry C      D cc-pVTZ              selected for orbital group  1
 Library entry C      F cc-pVTZ              selected for orbital group  1
 Library entry N      S cc-pVTZ              selected for orbital group  2
 Library entry N      P cc-pVTZ              selected for orbital group  2
 Library entry N      D cc-pVTZ              selected for orbital group  2
 Library entry N      F cc-pVTZ              selected for orbital group  2
 Library entry H      S cc-pVTZ              selected for orbital group  3
 Library entry H      P cc-pVTZ              selected for orbital group  3
 Library entry H      D cc-pVTZ              selected for orbital group  3


 PROGRAM * SEWARD (Integral evaluation for generally contracted gaussian basis sets)     Author: Roland Lindh, 1990

 Geometry written to block  1 of record 700


 Point group  C2v 



 ATOMIC COORDINATES

 NR  ATOM    CHARGE       X              Y              Z

   1  C       6.00    0.000000000    0.000000000   -2.099829485
   2  N       7.00    0.000000000    0.000000000    0.109898667
   3  H       1.00    0.000000000    0.000000000    1.989930799

 Bond lengths in Bohr (Angstrom)

 1-2  2.209728151  2-3  1.880032132
     ( 1.169337780)     ( 0.994870160)

 Bond angles

  1-2-3  180.00000000

 NUCLEAR CHARGE:                   14
 NUMBER OF PRIMITIVE AOS:         111
 NUMBER OF SYMMETRY AOS:          100
 NUMBER OF CONTRACTIONS:           74   (   33A1  +   17B1  +   17B2  +    7A2  )
 NUMBER OF INNER CORE ORBITALS:     0   (    0A1  +    0B1  +    0B2  +    0A2  )
 NUMBER OF OUTER CORE ORBITALS:     2   (    2A1  +    0B1  +    0B2  +    0A2  )
 NUMBER OF VALENCE ORBITALS:        9   (    5A1  +    2B1  +    2B2  +    0A2  )


 NUCLEAR REPULSION ENERGY   24.19728216

 EXTRA SYMMETRY OF AOS IN SYMMETRY 1:   1 1 1 1 1 1 1 1 2 1   2 1 2 1 1 1 1 1 1 1   1 2 1 2 1 2 1 1 1 1   1 1 2
 EXTRA SYMMETRY OF AOS IN SYMMETRY 2:   1 1 1 1 1 1 2 1 1 1   1 1 1 2 1 1 1
 EXTRA SYMMETRY OF AOS IN SYMMETRY 3:   1 1 1 1 1 1 2 1 1 1   1 1 1 2 1 1 1

 Eigenvalues of metric

         1 0.121E-02 0.202E-02 0.299E-02 0.647E-02 0.132E-01 0.218E-01 0.268E-01 0.590E-01
         2 0.196E-01 0.373E-01 0.661E-01 0.799E-01 0.147E+00 0.330E+00 0.353E+00 0.467E+00
         3 0.196E-01 0.373E-01 0.661E-01 0.799E-01 0.147E+00 0.330E+00 0.353E+00 0.467E+00
         4 0.297E+00 0.503E+00 0.539E+00 0.836E+00 0.132E+01 0.149E+01 0.202E+01


 Contracted 2-electron integrals neglected if value below      1.0D-11
 AO integral compression algorithm  1   Integral accuracy      1.0D-11

     5.243 MB (compressed) written to integral file ( 54.1%)


 NUMBER OF SORTED TWO-ELECTRON INTEGRALS:    1039939.     BUFFER LENGTH:  32768
 NUMBER OF SEGMENTS:   1  SEGMENT LENGTH:    1039939      RECORD LENGTH: 524288

 Memory used in sort:       1.60 MW

 SORT1 READ     1258092. AND WROTE      847516. INTEGRALS IN      3 RECORDS. CPU TIME:     0.03 SEC, REAL TIME:     0.14 SEC
 SORT2 READ      847516. AND WROTE     1039939. INTEGRALS IN     20 RECORDS. CPU TIME:     0.05 SEC, REAL TIME:     0.06 SEC

 FILE SIZES:   FILE 1:    35.4 MBYTE,  FILE 4:    12.6 MBYTE,   TOTAL:     48.0 MBYTE

 OPERATOR DM      FOR CENTER  0  COORDINATES:    0.000000    0.000000    0.000000


 **********************************************************************************************************************************
 DATASETS  * FILE   NREC   LENGTH (MB)   RECORD NAMES
              1      19       32.76       500      610      700      900      950      970     1000      129      960     1100   
                                          VAR    BASINP    GEOM    SYMINP    ZMAT    AOBASIS   BASIS     P2S    ABASIS      S 
                                         1400     1410     1200     1210     1080     1600     1650     1300     1700   
                                           T        V       H0       H01     AOSYM     SMH    MOLCAS    ERIS     OPER   

 PROGRAMS   *        TOTAL       INT
 CPU TIMES  *         0.93      0.80
 REAL TIME  *         2.28 SEC
 DISK USED  *        46.19 MB
 **********************************************************************************************************************************


 Program * Restricted Hartree-Fock

 Orbital guess generated from atomic densities. Full valence occupancy:    7   2   2   0

 Initial occupancy:   5   1   1   0

 NELEC=   14   SYM=1   MS2= 0   THRE=1.0D-08   THRD=3.2D-06   THRG=3.2D-06  HFMA2=F  DIIS_START=2   DIIS_MAX=10   DIIS_INCORE=F

 Level shifts:    0.00 (CLOSED)    0.00 (OPEN)    0.30 (GAP_MIN)

 ITER           ETOT              DE          GRAD        DDIFF     DIIS  NEXP   TIME(IT)  TIME(TOT)  DIAG
   1      -92.87403132     -92.87403132     0.00D+00     0.16D+00     0     0       0.00      0.01    start
   2      -92.88897523      -0.01494391     0.88D-02     0.13D-01     1     0       0.01      0.02    diag
   3      -92.89169843      -0.00272320     0.46D-02     0.58D-02     2     0       0.01      0.03    diag
   4      -92.89218186      -0.00048343     0.16D-02     0.18D-02     3     0       0.00      0.03    diag
   5      -92.89220951      -0.00002765     0.30D-03     0.58D-03     4     0       0.01      0.04    diag
   6      -92.89221162      -0.00000210     0.81D-04     0.19D-03     5     0       0.01      0.05    diag
   7      -92.89221173      -0.00000012     0.22D-04     0.44D-04     6     0       0.00      0.05    diag
   8      -92.89221174      -0.00000000     0.37D-05     0.60D-05     7     0       0.01      0.06    fixocc
   9      -92.89221174      -0.00000000     0.47D-06     0.99D-06     8     0       0.01      0.07    diag
  10      -92.89221174      -0.00000000     0.56D-07     0.98D-07     0     0       0.00      0.07    diag/orth

 Final occupancy:   5   1   1   0

 !RHF STATE 1.1 Energy                -92.892211736610
  RHF One-electron energy            -173.053938089930
  RHF Two-electron energy              55.964444193045
  RHF Kinetic energy                   92.730013595262
  RHF Nuclear energy                   24.197282160275
  RHF Virial quotient                  -1.001749143940

 !RHF STATE 1.1 Dipole moment           0.00000000     0.00000000     1.13539281
 Dipole moment /Debye                   0.00000000     0.00000000     2.88588066

 Orbital energies:

           1.1          2.1          3.1          4.1          5.1          6.1          7.1
    -15.602725   -11.294284    -1.263396    -0.874377    -0.489717     0.132510     0.303253

           1.2          2.2          3.2
     -0.519013     0.174311     0.469602

           1.3          2.3          3.3
     -0.519013     0.174311     0.469602

           1.4          2.4
      0.842638     1.374370


 HOMO      5.1    -0.489717 =     -13.3259eV
 LUMO      6.1     0.132510 =       3.6058eV
 LUMO-HOMO         0.622226 =      16.9316eV

 Orbitals saved in record  2100.2


 **********************************************************************************************************************************
 DATASETS  * FILE   NREC   LENGTH (MB)   RECORD NAMES
              1      19       32.76       500      610      700      900      950      970     1000      129      960     1100   
                                          VAR    BASINP    GEOM    SYMINP    ZMAT    AOBASIS   BASIS     P2S    ABASIS      S 
                                         1400     1410     1200     1210     1080     1600     1650     1300     1700   
                                           T        V       H0       H01     AOSYM     SMH    MOLCAS    ERIS     OPER   

              2       4        0.44       700     1000      520     2100   
                                         GEOM     BASIS   MCVARS     RHF  

 PROGRAMS   *        TOTAL    HF-SCF       INT
 CPU TIMES  *         1.01      0.08      0.80
 REAL TIME  *         2.48 SEC
 DISK USED  *        46.19 MB
 **********************************************************************************************************************************


 PROGRAM * CCSD (Closed-shell coupled cluster)     Authors: C. Hampel, H.-J. Werner, 1991, M. Deegan, P.J. Knowles, 1992


 Convergence thresholds:  THRVAR = 1.00D-08  THRDEN = 1.00D-06

 CCSD(T)     terms to be evaluated (factor= 1.000)


 Number of core orbitals:           2 (   2   0   0   0 )
 Number of closed-shell orbitals:   5 (   3   1   1   0 )
 Number of external orbitals:      67 (  28  16  16   7 )

 Molecular orbitals read from record     2100.2  Type=RHF/CANONICAL  

 Number of N-1 electron functions:               5
 Number of N-2 electron functions:              15
 Number of singly external CSFs:               116
 Number of doubly external CSFs:             15189
 Total number of CSFs:                       15306

 Length of J-op  integral file:               0.00 MB
 Length of K-op  integral file:               0.18 MB
 Length of 3-ext integral record:             0.00 MB

 Memory could be reduced to 0.69 Mwords without degradation in triples

 Integral transformation finished. Total CPU:   0.02 sec, npass=  1  Memory used:   0.18 MW

 Reference energy:                    -92.89221174

 MP2 singlet pair energy:              -0.21134066
 MP2 triplet pair energy:              -0.12132759
 MP2 correlation energy:               -0.33266825
 MP2 total energy:                    -93.22487998

 SCS-MP2 correlation energy:           -0.32910151   (PS=  1.200000  PT=  0.333333)
 SCS-MP2 total energy:                -93.22131325

 ITER.      SQ.NORM     CORR.ENERGY   TOTAL ENERGY   ENERGY CHANGE        DEN1      VAR(S)    VAR(P)  DIIS     TIME  TIME/IT
   1      1.11111294    -0.34093031   -93.23314204    -0.00826206     0.00329702  0.27D-02  0.25D-02  1  1     1.37     0.03
   2      1.12080034    -0.34165313   -93.23386487    -0.00072283    -0.00928355  0.66D-04  0.41D-03  2  2     1.40     0.03
   3      1.12611211    -0.34191766   -93.23412940    -0.00026453    -0.00240201  0.40D-04  0.27D-04  3  3     1.42     0.03
   4      1.12804502    -0.34187414   -93.23408588     0.00004352    -0.00065916  0.32D-05  0.33D-05  4  4     1.45     0.03
   5      1.12858096    -0.34188570   -93.23409743    -0.00001155    -0.00012171  0.58D-06  0.36D-06  5  5     1.47     0.03
   6      1.12874492    -0.34187264   -93.23408438     0.00001306    -0.00003110  0.53D-07  0.33D-07  6  6     1.50     0.03
   7      1.12876802    -0.34187264   -93.23408437     0.00000000    -0.00000329  0.87D-08  0.52D-08  6  1     1.52     0.03
   8      1.12877592    -0.34187210   -93.23408383     0.00000054     0.00000049  0.78D-09  0.47D-09  6  2     1.55     0.03

 Norm of t1 vector:      0.07356201      S-energy:    -0.00000087      T1 diagnostic:  0.01644896
                                                                       D1 diagnostic:  0.03298685
                                                                       D2 diagnostic:  0.16272056 (internal)

 Doubles amplitudes (print threshold =  0.500E-01):

         I         J         SYM. A    SYM. B    A         B      T(IJ, AB)

         3         3         2         2         1         1     -0.05444556
         3         3         3         3         1         1     -0.05444556
         4         4         2         2         1         1     -0.07133227
         5         5         3         3         1         1     -0.07133227


 Total CPU time for triples:      0.10 sec


 RESULTS
 =======

  Reference energy                    -92.892211736610
  CCSD singlet pair energy             -0.236584231206
  CCSD triplet pair energy             -0.105286992559
  CCSD correlation energy              -0.341872096421

  Triples (T) contribution             -0.017258932882
  Total correlation energy             -0.359131029303

  CCSD total energy                   -93.234083833031
  CCSD[T] energy                      -93.252275782803
  CCSD-T energy                       -93.250964071249
 !CCSD(T) total energy                -93.251342765913

 Timing summary (sec):

 STEP                 CPU(USER)    SYS     CPU(TOT)    WALL
 Transformation          0.03      0.01      0.04      0.11
 CCSD iterations         1.53      0.02      1.55      0.25
 Triples                 0.10      0.01      0.11      0.11

 Program statistics:

 Available memory in ccsd:               805306263
 Min. memory needed in ccsd:                 65983
 Max. memory used in ccsd:                   76615
 Max. memory used in cckext:                107513 ( 8 integral passes)



 **********************************************************************************************************************************
 DATASETS  * FILE   NREC   LENGTH (MB)   RECORD NAMES
              1      20       34.58       500      610      700      900      950      970     1000      129      960     1100   
                                          VAR    BASINP    GEOM    SYMINP    ZMAT    AOBASIS   BASIS     P2S    ABASIS      S 
                                         1400     1410     1200     1210     1080     1600     1650     1300     1700     1380   
                                           T        V       H0       H01     AOSYM     SMH    MOLCAS    ERIS     OPER     JKOP   

              2       4        0.44       700     1000      520     2100   
                                         GEOM     BASIS   MCVARS     RHF  

 PROGRAMS   *        TOTAL   CCSD(T)    HF-SCF       INT
 CPU TIMES  *         1.39      0.37      0.08      0.80
 REAL TIME  *         3.00 SEC
 DISK USED  *        46.19 MB
 **********************************************************************************************************************************

 Dump information in style XML to xml output                                                                      

 Orbitals will not be exported.

 **********************************************************************************************************************************

 CCSD(T)/cc-pVTZ energy=    -93.251342765913

         CCSD(T)          HF-SCF
    -93.25134277    -92.89221174
 **********************************************************************************************************************************
 Molpro calculation terminated
