
 Working directory              : /home/jovyan/scratch/molpro.yywBbPr3QU/
 Global scratch directory       : /home/jovyan/scratch/molpro.yywBbPr3QU/
 Wavefunction directory         : /home/jovyan/wfu/
 Main file repository           : /home/jovyan/scratch/molpro.yywBbPr3QU/

 id        : cardiff

 Nodes                nprocs
 jupyter-c-2efrancisan    1
 GA implementation: MPI file
 GA implementation (serial work in mppx): MPI file

 Using customized tuning parameters: mindgm=1; mindgv=20; mindgc=4; mindgr=1; noblas=0; minvec=7
 default implementation of scratch files=df  


 Variables initialized (1031), CPU time= 0.01 sec
 
 
 
 geometry={
 4
  S    -0.0687310    1.0220312   -0.4834061
  S     0.0687310   -1.0220312   -0.4834061
  H     0.8386269    1.2863190    0.4675986
  H    -0.8386269   -1.2863190    0.4675986
 }
 basis=cc-pVDZ
 angstrom
 
 
 hf; papt;mp3
 
 
 
 {put,xml;noorbitals,nobasis}
 Commands initialized (841), CPU time= 0.01 sec, 704 directives.
 Default parameters read. Elapsed time= 0.07 sec

 Checking input...
 Passed
1


                                         ***  PROGRAM SYSTEM MOLPRO  ***
                                       Copyright, TTI GmbH Stuttgart, 2015
                                    Version 2023.1 linked Mon Jun  5 13:27:10 2023


 **********************************************************************************************************************************
 LABEL *                                                                                                                                                                 
  (16 PROC) 64 bit serial version                                                        DATE: 03-Aug-23          TIME: 21:36:09  
 **********************************************************************************************************************************

 SHA1:             9738a14712571edd23541b6d7c4f3a3d766f8287
 **********************************************************************************************************************************

 Memory per process:       805 MW
 Total memory per node:   1074 MW
 Total GA space:           268 MW

 GA preallocation disabled
 GA check enabled

 Geometry recognized as XYZ


 Variable memory set to 805.3 MW

 SETTING BASIS          =    CC-PVDZ


 Recomputing integrals since basis changed


 Using spherical harmonics

 Library entry S      S cc-pVDZ              selected for orbital group  1
 Library entry S      P cc-pVDZ              selected for orbital group  1
 Library entry S      D cc-pVDZ              selected for orbital group  1
 Library entry H      S cc-pVDZ              selected for orbital group  2
 Library entry H      P cc-pVDZ              selected for orbital group  2


 PROGRAM * SEWARD (Integral evaluation for generally contracted gaussian basis sets)     Author: Roland Lindh, 1990

 Geometry written to block  1 of record 700


 Point group  C2  



 ATOMIC COORDINATES

 NR  ATOM    CHARGE       X              Y              Z

   1  S      16.00   -0.129882766    1.931359059   -0.913505136
   2  S      16.00    0.129882766   -1.931359059   -0.913505136
   3  H       1.00    1.584775162    2.430790619    0.883633290
   4  H       1.00   -1.584775162   -2.430790619    0.883633290

 Bond lengths in Bohr (Angstrom)

 1-2  3.871442804  1-3  2.533612089  2-4  2.533612089
     ( 2.048679305)     ( 1.340729779)     ( 1.340729779)

 Bond angles

  1-2-4   98.70045567   2-1-3   98.70045567

 NUCLEAR CHARGE:                   34
 NUMBER OF PRIMITIVE AOS:          98
 NUMBER OF SYMMETRY AOS:           96
 NUMBER OF CONTRACTIONS:           46   (   23A   +   23B   )
 NUMBER OF INNER CORE ORBITALS:     2   (    1A   +    1B   )
 NUMBER OF OUTER CORE ORBITALS:     8   (    4A   +    4B   )
 NUMBER OF VALENCE ORBITALS:       10   (    5A   +    5B   )


 NUCLEAR REPULSION ENERGY   85.40927887

 Eigenvalues of metric

         1 0.192E-01 0.639E-01 0.789E-01 0.857E-01 0.105E+00 0.150E+00 0.600E+00 0.656E+00
         2 0.949E-02 0.477E-01 0.782E-01 0.827E-01 0.106E+00 0.133E+00 0.308E+00 0.607E+00


 Contracted 2-electron integrals neglected if value below      1.0D-11
 AO integral compression algorithm  1   Integral accuracy      1.0D-11

     2.097 MB (compressed) written to integral file ( 45.5%)


 NUMBER OF SORTED TWO-ELECTRON INTEGRALS:     304980.     BUFFER LENGTH:  32768
 NUMBER OF SEGMENTS:   1  SEGMENT LENGTH:     304980      RECORD LENGTH: 524288

 Memory used in sort:       0.86 MW

 SORT1 READ      554520. AND WROTE      249508. INTEGRALS IN      1 RECORDS. CPU TIME:     0.01 SEC, REAL TIME:     0.01 SEC
 SORT2 READ      249508. AND WROTE      304980. INTEGRALS IN      8 RECORDS. CPU TIME:     0.02 SEC, REAL TIME:     0.03 SEC

 FILE SIZES:   FILE 1:    32.2 MBYTE,  FILE 4:     4.3 MBYTE,   TOTAL:     36.4 MBYTE

 OPERATOR DM      FOR CENTER  0  COORDINATES:    0.000000    0.000000    0.000000


 **********************************************************************************************************************************
 DATASETS  * FILE   NREC   LENGTH (MB)   RECORD NAMES
              1      19       29.82       500      610      700      900      950      970     1000      129      960     1100   
                                          VAR    BASINP    GEOM    SYMINP    ZMAT    AOBASIS   BASIS     P2S    ABASIS      S 
                                         1400     1410     1200     1210     1080     1600     1650     1300     1700   
                                           T        V       H0       H01     AOSYM     SMH    MOLCAS    ERIS     OPER   

 PROGRAMS   *        TOTAL       INT
 CPU TIMES  *         0.58      0.45
 REAL TIME  *         1.60 SEC
 DISK USED  *        35.14 MB
 **********************************************************************************************************************************


 Program * Restricted Hartree-Fock

 Orbital guess generated from atomic densities. Full valence occupancy:   10  10

 Initial occupancy:   9   8

 NELEC=   34   SYM=1   MS2= 0   THRE=1.0D-08   THRD=3.2D-06   THRG=3.2D-06  HFMA2=F  DIIS_START=2   DIIS_MAX=10   DIIS_INCORE=F

 Level shifts:    0.00 (CLOSED)    0.00 (OPEN)    0.30 (GAP_MIN)

 ITER           ETOT              DE          GRAD        DDIFF     DIIS  NEXP   TIME(IT)  TIME(TOT)  DIAG
   1     -796.19736469    -796.19736469     0.00D+00     0.34D+00     0     0       0.00      0.00    start
   2     -796.22124145      -0.02387677     0.76D-02     0.20D-01     1     0       0.00      0.00    diag
   3     -796.22313487      -0.00189342     0.22D-02     0.34D-02     2     0       0.01      0.01    diag
   4     -796.22340498      -0.00027011     0.65D-03     0.17D-02     3     0       0.00      0.01    diag
   5     -796.22341342      -0.00000843     0.11D-03     0.33D-03     4     0       0.00      0.01    diag
   6     -796.22341378      -0.00000036     0.26D-04     0.95D-04     5     0       0.00      0.01    diag
   7     -796.22341380      -0.00000002     0.61D-05     0.21D-04     6     0       0.01      0.02    diag
   8     -796.22341380      -0.00000000     0.16D-05     0.63D-05     7     0       0.00      0.02    fixocc
   9     -796.22341380      -0.00000000     0.34D-06     0.15D-05     8     0       0.00      0.02    diag
  10     -796.22341380      -0.00000000     0.95D-07     0.26D-06     0     0       0.01      0.03    diag/orth

 Final occupancy:   9   8

 !RHF STATE 1.1 Energy               -796.223413804027
  RHF One-electron energy           -1270.669667829713
  RHF Two-electron energy             389.036975159174
  RHF Kinetic energy                  796.316588751854
  RHF Nuclear energy                   85.409278866511
  RHF Virial quotient                  -0.999882992582

 !RHF STATE 1.1 Dipole moment           0.00000000     0.00000000     0.58535187
 Dipole moment /Debye                   0.00000000     0.00000000     1.48781604

 Orbital energies:

           1.1          2.1          3.1          4.1          5.1          6.1          7.1          8.1          9.1         10.1
    -91.985910    -8.988451    -6.670417    -6.668510    -6.665987    -1.063044    -0.600186    -0.478249    -0.378580     0.152588

          11.1
      0.444160

           1.2          2.2          3.2          4.2          5.2          6.2          7.2          8.2          9.2         10.2
    -91.985908    -8.988294    -6.670097    -6.668424    -6.665988    -0.886327    -0.548472    -0.385014     0.119235     0.169230


 HOMO      9.1    -0.378580 =     -10.3017eV
 LUMO      9.2     0.119235 =       3.2445eV
 LUMO-HOMO         0.497815 =      13.5462eV

 Orbitals saved in record  2100.2


 **********************************************************************************************************************************
 DATASETS  * FILE   NREC   LENGTH (MB)   RECORD NAMES
              1      19       29.82       500      610      700      900      950      970     1000      129      960     1100   
                                          VAR    BASINP    GEOM    SYMINP    ZMAT    AOBASIS   BASIS     P2S    ABASIS      S 
                                         1400     1410     1200     1210     1080     1600     1650     1300     1700   
                                           T        V       H0       H01     AOSYM     SMH    MOLCAS    ERIS     OPER   

              2       4        0.45       700     1000      520     2100   
                                         GEOM     BASIS   MCVARS     RHF  

 PROGRAMS   *        TOTAL    HF-SCF       INT
 CPU TIMES  *         0.62      0.04      0.45
 REAL TIME  *         1.70 SEC
 DISK USED  *        35.14 MB
 **********************************************************************************************************************************


 PROGRAM * PAPT (Closed-shell)     Authors: C. Hampel, H.-J. Werner, 1991, P.J. Knowles, 2021


 Convergence thresholds:  THRVAR = 1.00D-08  THRDEN = 1.00D-06

 Number of core orbitals:          10 (   5   5 )
 Number of closed-shell orbitals:   7 (   4   3 )
 Number of external orbitals:      29 (  14  15 )

 Molecular orbitals read from record     2100.2  Type=RHF/CANONICAL  

 Number of N-1 electron functions:               7
 Number of N-2 electron functions:              28
 Number of singly external CSFs:               101
 Number of doubly external CSFs:             10404
 Total number of CSFs:                       10506

 Length of J-op  integral file:               0.00 MB
 Length of K-op  integral file:               0.14 MB

 Integral transformation finished. Total CPU:   0.01 sec, npass=  1  Memory used:   0.11 MW

 Reference energy:                   -796.22341380

                        CORR.ENERGY   TOTAL ENERGY   ENERGY CHANGE
 MP2:                   -0.26774999  -796.49116380    -0.26774999

 SCS-MP2 correlation energy:           -0.26603191   (PS=  1.200000  PT=  0.333333)
 SCS-MP2 total energy:               -796.48944571
 Iteration:   1     0.1739D+00
 Iteration:   2     0.3273D+00
 Iteration:   3     0.2452D-01
 Iteration:   4     0.4101D-01
 Iteration:   5     0.7402D-02
 Iteration:   6     0.4974D-02
 Iteration:   7     0.2539D-02
 Iteration:   8     0.4119D-03
 Iteration:   9     0.8852D-03
 Iteration:  10     0.9814D-04
 PAPT operator written to  7000.1
 PAPT orbitals and eigenvalues written to  7000.2

 MP3(D):                -0.29851745  -796.52193126    -0.03076746



 RESULTS
 =======

  Reference energy                   -796.223413804027
  MP3 singlet pair energy              -0.202292129342
  MP3 triplet pair energy              -0.096225323587
  MP3 correlation energy               -0.298517452929

 !MP3 total energy                   -796.521931256956

 Timing summary (sec):

 STEP                 CPU(USER)    SYS     CPU(TOT)    WALL
 Transformation          0.01      0.01      0.02      0.03
 CCSD iterations         0.93      0.01      0.94      0.08

 Program statistics:

 Available memory in ccsd:               805306163
 Min. memory needed in ccsd:                 44855
 Max. memory used in ccsd:                   49326
 Max. memory used in cckext:                111032 ( 1 integral passes)



 **********************************************************************************************************************************
 DATASETS  * FILE   NREC   LENGTH (MB)   RECORD NAMES
              1      21       30.18       500      610      700      900      950      970     1000      129      960     1100   
                                          VAR    BASINP    GEOM    SYMINP    ZMAT    AOBASIS   BASIS     P2S    ABASIS      S 
                                         1400     1410     1200     1210     1080     1600     1650     1300     1700     1380   
                                           T        V       H0       H01     AOSYM     SMH    MOLCAS    ERIS     OPER     JKOP   
                                         7000   
                                        PAPT AO    

              2       5        0.57       700     1000      520     2100     7000   
                                         GEOM     BASIS   MCVARS     RHF     PAPT   

 PROGRAMS   *        TOTAL      PAPT    HF-SCF       INT
 CPU TIMES  *         0.71      0.09      0.04      0.45
 REAL TIME  *         1.85 SEC
 DISK USED  *        35.14 MB
 **********************************************************************************************************************************


 PROGRAM * MP3 (Closed-shell)     Authors: C. Hampel, H.-J. Werner, 1991, M. Deegan, P.J. Knowles, 1992


 Convergence thresholds:  THRVAR = 1.00D-08  THRDEN = 1.00D-06

 Number of core orbitals:          10 (   5   5 )
 Number of closed-shell orbitals:   7 (   4   3 )
 Number of external orbitals:      29 (  14  15 )

 Molecular orbitals read from record     7000.2  Type=PAPT/CANONICAL (state 1.1)

 Number of N-1 electron functions:               7
 Number of N-2 electron functions:              28
 Number of singly external CSFs:               101
 Number of doubly external CSFs:             10404
 Total number of CSFs:                       10506

 Length of J-op  integral file:               0.00 MB
 Length of K-op  integral file:               0.14 MB

 Integral transformation finished. Total CPU:   0.01 sec, npass=  1  Memory used:   0.11 MW
 Orbital energies read from record       7000.2  Type=PAPT/CANONICAL (state 1.1)

 Reference energy:                   -796.22341380

                        CORR.ENERGY   TOTAL ENERGY   ENERGY CHANGE
 MP2:                   -0.30419423  -796.52760804    -0.30419423

 SCS-MP2 correlation energy:           -0.30391775   (PS=  1.200000  PT=  0.333333)
 SCS-MP2 total energy:               -796.52733155

 MP3(D):                -0.30430566  -796.52771947    -0.00011143



 RESULTS
 =======

  Reference energy                   -796.223413804027
  MP3 singlet pair energy              -0.209309466966
  MP3 triplet pair energy              -0.094996196116
  MP3 correlation energy               -0.304305663083

 !MP3 total energy                   -796.527719467110

 Timing summary (sec):

 STEP                 CPU(USER)    SYS     CPU(TOT)    WALL
 Transformation          0.01      0.00      0.01      0.01
 CCSD iterations         1.00      0.00      1.00      0.03

 Program statistics:

 Available memory in ccsd:               805306163
 Min. memory needed in ccsd:                 44855
 Max. memory used in ccsd:                   49326
 Max. memory used in cckext:                111032 ( 1 integral passes)



 **********************************************************************************************************************************
 DATASETS  * FILE   NREC   LENGTH (MB)   RECORD NAMES
              1      21       30.18       500      610      700      900      950      970     1000      129      960     1100   
                                          VAR    BASINP    GEOM    SYMINP    ZMAT    AOBASIS   BASIS     P2S    ABASIS      S 
                                         1400     1410     1200     1210     1080     1600     1650     1300     1700     1380   
                                           T        V       H0       H01     AOSYM     SMH    MOLCAS    ERIS     OPER     JKOP   
                                         7000   
                                        PAPT AO    

              2       5        0.57       700     1000      520     2100     7000   
                                         GEOM     BASIS   MCVARS     RHF     PAPT   

 PROGRAMS   *        TOTAL       MP3      PAPT    HF-SCF       INT
 CPU TIMES  *         0.78      0.07      0.09      0.04      0.45
 REAL TIME  *         1.93 SEC
 DISK USED  *        35.14 MB
 **********************************************************************************************************************************

 Dump information in style XML to xml output                                                                      

 Orbitals will not be exported.

 **********************************************************************************************************************************

 MP3/cc-pVDZ energy=   -796.527719467110

             MP3            PAPT          HF-SCF
   -796.52771947   -796.52193126   -796.22341380
 **********************************************************************************************************************************
 Molpro calculation terminated
