
 Working directory              : /home/jovyan/scratch/molpro.HY8NWeB1iC/
 Global scratch directory       : /home/jovyan/scratch/molpro.HY8NWeB1iC/
 Wavefunction directory         : /home/jovyan/wfu/
 Main file repository           : /home/jovyan/scratch/molpro.HY8NWeB1iC/

 id        : cardiff

 Nodes                nprocs
 jupyter-c-2efrancisan    1
 GA implementation: MPI file
 GA implementation (serial work in mppx): MPI file

 Using customized tuning parameters: mindgm=1; mindgv=20; mindgc=4; mindgr=1; noblas=0; minvec=7
 default implementation of scratch files=df  


 Variables initialized (1031), CPU time= 0.01 sec
 
 
 
 geometry={
 6
  3HF (cyc) (Full point group C3h)
  H 0.000000 1.164150 0.000000
  H 1.008183 -0.582075 0.000000
  H -1.008183 -0.582075 0.000000
  F -0.527520 -1.395778 0.000000
  F -0.945019 1.154735 0.000000
  F 1.472540 0.241043 0.000000
 }
 basis=cc-pVTZ
 angstrom
 
 
 hf; papt;mp4
 
 
 
 {put,xml;noorbitals,nobasis}
 Commands initialized (841), CPU time= 0.01 sec, 704 directives.
 Default parameters read. Elapsed time= 0.08 sec

 Checking input...
 Passed
1


                                         ***  PROGRAM SYSTEM MOLPRO  ***
                                       Copyright, TTI GmbH Stuttgart, 2015
                                    Version 2023.1 linked Mon Jun  5 13:27:10 2023


 **********************************************************************************************************************************
 LABEL *                                                                                                                                                                 
  (16 PROC) 64 bit serial version                                                        DATE: 03-Aug-23          TIME: 13:22:01  
 **********************************************************************************************************************************

 SHA1:             9738a14712571edd23541b6d7c4f3a3d766f8287
 **********************************************************************************************************************************

 Memory per process:       805 MW
 Total memory per node:   1074 MW
 Total GA space:           268 MW

 GA preallocation disabled
 GA check enabled

 Geometry recognized as XYZ


 Variable memory set to 805.3 MW

 SETTING BASIS          =    CC-PVTZ


 Recomputing integrals since basis changed


 Using spherical harmonics

 Library entry H      S cc-pVTZ              selected for orbital group  1
 Library entry H      P cc-pVTZ              selected for orbital group  1
 Library entry H      D cc-pVTZ              selected for orbital group  1
 Library entry F      S cc-pVTZ              selected for orbital group  2
 Library entry F      P cc-pVTZ              selected for orbital group  2
 Library entry F      D cc-pVTZ              selected for orbital group  2
 Library entry F      F cc-pVTZ              selected for orbital group  2


 PROGRAM * SEWARD (Integral evaluation for generally contracted gaussian basis sets)     Author: Roland Lindh, 1990

 Geometry written to block  1 of record 700


 Point group  Cs  



 ATOMIC COORDINATES

 NR  ATOM    CHARGE       X              Y              Z

   1  H       1.00    0.000000000    2.199924668    0.000000000
   2  H       1.00    1.905189754   -1.099962334    0.000000000
   3  H       1.00   -1.905189754   -1.099962334    0.000000000
   4  F       9.00   -0.996868325   -2.637638151    0.000000000
   5  F       9.00   -1.785827093    2.182132897    0.000000000
   6  F       9.00    2.782697308    0.455505254    0.000000000

 Bond lengths in Bohr (Angstrom)

 1-5  1.785915718  2-6  1.785916831  3-4  1.785915657
     ( 0.945065899)     ( 0.945066487)     ( 0.945065866)

 NUCLEAR CHARGE:                   30
 NUMBER OF PRIMITIVE AOS:         192
 NUMBER OF SYMMETRY AOS:          174
 NUMBER OF CONTRACTIONS:          132   (   90A'  +   42A"  )
 NUMBER OF INNER CORE ORBITALS:     0   (    0A'  +    0A"  )
 NUMBER OF OUTER CORE ORBITALS:     3   (    3A'  +    0A"  )
 NUMBER OF VALENCE ORBITALS:       15   (   12A'  +    3A"  )


 NUCLEAR REPULSION ENERGY   79.34823460


 Eigenvalues of metric

         1 0.324E-02 0.324E-02 0.350E-02 0.792E-02 0.872E-02 0.872E-02 0.105E-01 0.105E-01
         2 0.495E-01 0.495E-01 0.501E-01 0.119E+00 0.145E+00 0.145E+00 0.254E+00 0.280E+00


 Contracted 2-electron integrals neglected if value below      1.0D-11
 AO integral compression algorithm  1   Integral accuracy      1.0D-11

     76.022 MB (compressed) written to integral file ( 41.3%)


 NUMBER OF SORTED TWO-ELECTRON INTEGRALS:   19888071.     BUFFER LENGTH:  32768
 NUMBER OF SEGMENTS:   2  SEGMENT LENGTH:   15993726      RECORD LENGTH: 524288

 Memory used in sort:      16.55 MW

 SORT1 READ    23019799. AND WROTE    17368231. INTEGRALS IN     50 RECORDS. CPU TIME:     0.33 SEC, REAL TIME:     4.13 SEC
 SORT2 READ    17368231. AND WROTE    19888071. INTEGRALS IN    290 RECORDS. CPU TIME:     0.48 SEC, REAL TIME:     0.55 SEC

 FILE SIZES:   FILE 1:   106.6 MBYTE,  FILE 4:   209.8 MBYTE,   TOTAL:    316.4 MBYTE

 OPERATOR DM      FOR CENTER  0  COORDINATES:    0.000000    0.000000    0.000000


 **********************************************************************************************************************************
 DATASETS  * FILE   NREC   LENGTH (MB)   RECORD NAMES
              1      19       93.00       500      610      700      900      950      970     1000      129      960     1100   
                                          VAR    BASINP    GEOM    SYMINP    ZMAT    AOBASIS   BASIS     P2S    ABASIS      S 
                                         1400     1410     1200     1210     1080     1600     1650     1300     1700   
                                           T        V       H0       H01     AOSYM     SMH    MOLCAS    ERIS     OPER   

 PROGRAMS   *        TOTAL       INT
 CPU TIMES  *         4.07      3.93
 REAL TIME  *        13.95 SEC
 DISK USED  *       302.15 MB
 **********************************************************************************************************************************


 Program * Restricted Hartree-Fock

 Orbital guess generated from atomic densities. Full valence occupancy:   15   3

 Initial occupancy:  12   3

 NELEC=   30   SYM=1   MS2= 0   THRE=1.0D-08   THRD=3.2D-06   THRG=3.2D-06  HFMA2=F  DIIS_START=2   DIIS_MAX=10   DIIS_INCORE=F

 Level shifts:    0.00 (CLOSED)    0.00 (OPEN)    0.30 (GAP_MIN)

 ITER           ETOT              DE          GRAD        DDIFF     DIIS  NEXP   TIME(IT)  TIME(TOT)  DIAG
   1     -300.13239596    -300.13239596     0.00D+00     0.11D+00     0     0       0.18      0.35    start
   2     -300.17967991      -0.04728395     0.91D-02     0.13D-01     1     0       0.18      0.53    diag
   3     -300.19127958      -0.01159967     0.49D-02     0.37D-02     2     0       0.18      0.71    diag
   4     -300.19164435      -0.00036477     0.58D-03     0.76D-03     3     0       0.18      0.89    diag
   5     -300.19169383      -0.00004948     0.16D-03     0.27D-03     4     0       0.17      1.06    diag
   6     -300.19169888      -0.00000505     0.45D-04     0.80D-04     5     0       0.19      1.25    diag
   7     -300.19169902      -0.00000014     0.77D-05     0.15D-04     6     0       0.18      1.43    diag
   8     -300.19169902      -0.00000000     0.99D-06     0.19D-05     7     0       0.18      1.61    fixocc
   9     -300.19169902      -0.00000000     0.18D-06     0.21D-06     0     0       0.18      1.79    diag

 Final occupancy:  12   3

 !RHF STATE 1.1 Energy               -300.191699024027
  RHF One-electron energy            -578.595879581204
  RHF Two-electron energy             199.055945958902
  RHF Kinetic energy                  299.980521250639
  RHF Nuclear energy                   79.348234598275
  RHF Virial quotient                  -1.000703971620

 !RHF STATE 1.1 Dipole moment          -0.00000139    -0.00000021     0.00000000
 Dipole moment /Debye                  -0.00000353    -0.00000052     0.00000000

 Orbital energies:

           1.1          2.1          3.1          4.1          5.1          6.1          7.1          8.1          9.1         10.1
    -26.316805   -26.316805   -26.316793    -1.637836    -1.614421    -1.614420    -0.800513    -0.800513    -0.794972    -0.682613

          11.1         12.1         13.1         14.1
     -0.661289    -0.661289     0.160889     0.232346

           1.2          2.2          3.2          4.2          5.2
     -0.685152    -0.669282    -0.669282     0.728811     0.828892


 HOMO     12.1    -0.661289 =     -17.9946eV
 LUMO     13.1     0.160889 =       4.3780eV
 LUMO-HOMO         0.822179 =      22.3726eV

 Orbitals saved in record  2100.2


 **********************************************************************************************************************************
 DATASETS  * FILE   NREC   LENGTH (MB)   RECORD NAMES
              1      19       93.00       500      610      700      900      950      970     1000      129      960     1100   
                                          VAR    BASINP    GEOM    SYMINP    ZMAT    AOBASIS   BASIS     P2S    ABASIS      S 
                                         1400     1410     1200     1210     1080     1600     1650     1300     1700   
                                           T        V       H0       H01     AOSYM     SMH    MOLCAS    ERIS     OPER   

              2       4        0.63       700     1000      520     2100   
                                         GEOM     BASIS   MCVARS     RHF  

 PROGRAMS   *        TOTAL    HF-SCF       INT
 CPU TIMES  *         5.87      1.80      3.93
 REAL TIME  *        15.86 SEC
 DISK USED  *       302.15 MB
 **********************************************************************************************************************************


 PROGRAM * PAPT (Closed-shell)     Authors: C. Hampel, H.-J. Werner, 1991, P.J. Knowles, 2021


 Convergence thresholds:  THRVAR = 1.00D-08  THRDEN = 1.00D-06

 Number of core orbitals:           3 (   3   0 )
 Number of closed-shell orbitals:  12 (   9   3 )
 Number of external orbitals:     117 (  78  39 )

 Molecular orbitals read from record     2100.2  Type=RHF/CANONICAL  

 Number of N-1 electron functions:              12
 Number of N-2 electron functions:              78
 Number of singly external CSFs:               819
 Number of doubly external CSFs:            507195
 Total number of CSFs:                      508015

 Length of J-op  integral file:               0.00 MB
 Length of K-op  integral file:               0.74 MB

 Integral transformation finished. Total CPU:   0.35 sec, npass=  1  Memory used:   0.84 MW

 Reference energy:                   -300.19169902

                        CORR.ENERGY   TOTAL ENERGY   ENERGY CHANGE
 MP2:                   -0.82720255  -301.01890158    -0.82720255

 SCS-MP2 correlation energy:           -0.80741462   (PS=  1.200000  PT=  0.333333)
 SCS-MP2 total energy:               -300.99911364
 Iteration:   1     0.2300D+00
 Iteration:   2     0.2164D+00
 Iteration:   3     0.8865D-01
 Iteration:   4     0.3306D-01
 Iteration:   5     0.1805D+01
 Iteration:   6     0.6373D-02
 Iteration:   7     0.4695D-02
 Iteration:   8     0.6063D-02
 Iteration:   9     0.1647D-02
 Iteration:  10     0.7434D-02
 Iteration:  11     0.5111D-03
 Iteration:  12     0.8444D-03
 Iteration:  13     0.1772D-03
 Iteration:  14     0.6894D-04
 PAPT operator written to  7000.1
 PAPT orbitals and eigenvalues written to  7000.2

 MP3(D):                -0.82515187  -301.01685089     0.00205068



 RESULTS
 =======

  Reference energy                   -300.191699024027
  MP3 singlet pair energy              -0.532780182115
  MP3 triplet pair energy              -0.292371687086
  MP3 correlation energy               -0.825151869201

 !MP3 total energy                   -301.016850893228

 Timing summary (sec):

 STEP                 CPU(USER)    SYS     CPU(TOT)    WALL
 Transformation          0.38      0.04      0.42      0.47
 CCSD iterations         8.44      0.05      8.49      2.43

 Program statistics:

 Available memory in ccsd:               805305780
 Min. memory needed in ccsd:               1392571
 Max. memory used in ccsd:                 1834057
 Max. memory used in cckext:               1850786 ( 1 integral passes)



 **********************************************************************************************************************************
 DATASETS  * FILE   NREC   LENGTH (MB)   RECORD NAMES
              1      21      101.32       500      610      700      900      950      970     1000      129      960     1100   
                                          VAR    BASINP    GEOM    SYMINP    ZMAT    AOBASIS   BASIS     P2S    ABASIS      S 
                                         1400     1410     1200     1210     1080     1600     1650     1300     1700     1380   
                                           T        V       H0       H01     AOSYM     SMH    MOLCAS    ERIS     OPER     JKOP   
                                         7000   
                                        PAPT AO    

              2       5        0.96       700     1000      520     2100     7000   
                                         GEOM     BASIS   MCVARS     RHF     PAPT   

 PROGRAMS   *        TOTAL      PAPT    HF-SCF       INT
 CPU TIMES  *         8.62      2.75      1.80      3.93
 REAL TIME  *        18.80 SEC
 DISK USED  *       302.15 MB
 **********************************************************************************************************************************


 PROGRAM * MP4 (Closed-shell)     Authors: C. Hampel, H.-J. Werner, 1991, M. Deegan, P.J. Knowles, 1992


 Convergence thresholds:  THRVAR = 1.00D-08  THRDEN = 1.00D-06

 MP4(T)     terms to be evaluated (factor= 0.000)


 Number of core orbitals:           3 (   3   0 )
 Number of closed-shell orbitals:  12 (   9   3 )
 Number of external orbitals:     117 (  78  39 )

 Molecular orbitals read from record     7000.2  Type=PAPT/CANONICAL (state 1.1)

 Number of N-1 electron functions:              12
 Number of N-2 electron functions:              78
 Number of singly external CSFs:               819
 Number of doubly external CSFs:            507195
 Total number of CSFs:                      508015

 Length of J-op  integral file:               0.00 MB
 Length of K-op  integral file:               0.74 MB

 Memory could be reduced to 13.03 Mwords without degradation in triples

 Integral transformation finished. Total CPU:   0.84 sec, npass=  1  Memory used:   4.68 MW
 Orbital energies read from record       7000.2  Type=PAPT/CANONICAL (state 1.1)

 Reference energy:                   -300.19169902

                        CORR.ENERGY   TOTAL ENERGY   ENERGY CHANGE
 MP2:                   -0.82905852  -301.02075754    -0.82905852

 SCS-MP2 correlation energy:           -0.81073582   (PS=  1.200000  PT=  0.333333)
 SCS-MP2 total energy:               -301.00243485

 MP3(D):                -0.82911053  -301.02080955    -0.00005201
 MP4(DQ):               -0.82639609  -301.01809511     0.00271444
 MP4(SDQ):              -0.83107549  -301.02277452    -0.00467940

 Norm of t1 vector:      0.04694363      S-energy:    -0.00467940      T1 diagnostic:  0.00677573

 Largest off-diagonal element in interal  block of Fock matrix:  0.85D-01
 Largest off-diagonal element in external block of Fock matrix:  0.27D+00


 Total CPU time for triples:     15.41 sec


 RESULTS
 =======

  Reference energy                   -300.191699024027
  MP4(SDQ) singlet pair energy         -0.531393042335
  MP4(SDQ) triplet pair energy         -0.295003048065
  MP4(SDQ) correlation energy          -0.831075492087

  Triples contribution                 -0.022593482794
  Total correlation energy             -0.853668974882

  MP4(SDQ) total energy              -301.022774516115
 !MP4(SDTQ) total energy             -301.045367998909

 Timing summary (sec):

 STEP                 CPU(USER)    SYS     CPU(TOT)    WALL
 Transformation          1.05      0.13      1.18      1.28
 CCSD iterations        10.67      0.04     10.71      1.88
 Triples                15.41      0.74     16.15     16.29

 Program statistics:

 Available memory in ccsd:               805305780
 Min. memory needed in ccsd:               1392571
 Max. memory used in ccsd:                 1834057
 Max. memory used in cckext:               1850786 ( 1 integral passes)



 **********************************************************************************************************************************
 DATASETS  * FILE   NREC   LENGTH (MB)   RECORD NAMES
              1      22      139.03       500      610      700      900      950      970     1000      129      960     1100   
                                          VAR    BASINP    GEOM    SYMINP    ZMAT    AOBASIS   BASIS     P2S    ABASIS      S 
                                         1400     1410     1200     1210     1080     1600     1650     1300     1700     1380   
                                           T        V       H0       H01     AOSYM     SMH    MOLCAS    ERIS     OPER     JKOP   
                                         7000     1380(1)
                                        PAPT AO   JKOP   

              2       5        0.96       700     1000      520     2100     7000   
                                         GEOM     BASIS   MCVARS     RHF     PAPT   

 PROGRAMS   *        TOTAL       MP4      PAPT    HF-SCF       INT
 CPU TIMES  *        26.93     18.31      2.75      1.80      3.93
 REAL TIME  *        38.46 SEC
 DISK USED  *       302.15 MB
 **********************************************************************************************************************************

 Dump information in style XML to xml output                                                                      

 Orbitals will not be exported.

 **********************************************************************************************************************************

 MP4/cc-pVTZ energy=   -301.045367998909

             MP4            PAPT          HF-SCF
   -301.04536800   -301.01685089   -300.19169902
 **********************************************************************************************************************************
 Molpro calculation terminated
