
 Working directory              : /home/jovyan/scratch/molpro.zOcjSlt5Gl/
 Global scratch directory       : /home/jovyan/scratch/molpro.zOcjSlt5Gl/
 Wavefunction directory         : /home/jovyan/wfu/
 Main file repository           : /home/jovyan/scratch/molpro.zOcjSlt5Gl/

 id        : cardiff

 Nodes                nprocs
 jupyter-c-2efrancisan    1
 GA implementation: MPI file
 GA implementation (serial work in mppx): MPI file

 Using customized tuning parameters: mindgm=1; mindgv=20; mindgc=4; mindgr=1; noblas=0; minvec=7
 default implementation of scratch files=df  


 Variables initialized (1031), CPU time= 0.01 sec
 
 
 
 geometry={
 20
  C    -0.0068699    0.7702573    0.4144412
  C     0.0068699   -0.7702573    0.4144412
  C     1.4079116   -1.3250763    0.6406010
  H    -0.6108025   -1.0881108    1.2568246
  C    -0.6003722   -1.3575502   -0.8538179
  C    -1.4079116    1.3250763    0.6406010
  C     0.6003722    1.3575502   -0.8538179
  H     0.6108025    1.0881108    1.2568246
  H     1.3847819   -2.3993600    0.8127175
  H     2.0448598   -1.1492812   -0.2243403
  H     1.8818018   -0.8616367    1.5028837
  H     0.0501521   -1.1813558   -1.7079723
  H    -0.7346481   -2.4327435   -0.7611970
  H    -1.5708616   -0.9207720   -1.0801440
  H     0.7346481    2.4327435   -0.7611970
  H     1.5708616    0.9207720   -1.0801440
  H    -0.0501521    1.1813558   -1.7079723
  H    -1.3847819    2.3993600    0.8127175
  H    -2.0448598    1.1492812   -0.2243403
  H    -1.8818018    0.8616367    1.5028837
 }
 basis=cc-pVDZ
 angstrom
 
 
 hf
 
 
 
 {put,xml;noorbitals,nobasis}
 Commands initialized (841), CPU time= 0.01 sec, 704 directives.
 Default parameters read. Elapsed time= 1.29 sec

 Checking input...
 Passed
1


                                         ***  PROGRAM SYSTEM MOLPRO  ***
                                       Copyright, TTI GmbH Stuttgart, 2015
                                    Version 2023.1 linked Mon Jun  5 13:27:10 2023


 **********************************************************************************************************************************
 LABEL *                                                                                                                                                                 
  (16 PROC) 64 bit serial version                                                        DATE: 03-Aug-23          TIME: 09:54:45  
 **********************************************************************************************************************************

 SHA1:             9738a14712571edd23541b6d7c4f3a3d766f8287
 **********************************************************************************************************************************

 Memory per process:       805 MW
 Total memory per node:   1074 MW
 Total GA space:           268 MW

 GA preallocation disabled
 GA check enabled

 Geometry recognized as XYZ


 Variable memory set to 805.3 MW

 SETTING BASIS          =    CC-PVDZ


 Recomputing integrals since basis changed


 Using spherical harmonics

 Library entry C      S cc-pVDZ              selected for orbital group  1
 Library entry C      P cc-pVDZ              selected for orbital group  1
 Library entry C      D cc-pVDZ              selected for orbital group  1
 Library entry H      S cc-pVDZ              selected for orbital group  2
 Library entry H      P cc-pVDZ              selected for orbital group  2


 PROGRAM * SEWARD (Integral evaluation for generally contracted gaussian basis sets)     Author: Roland Lindh, 1990

 Geometry written to block  1 of record 700


 Point group  C2  



 ATOMIC COORDINATES

 NR  ATOM    CHARGE       X              Y              Z

   1  C       6.00   -0.012982230    1.455575342    0.783180363
   2  C       6.00    0.012982230   -1.455575342    0.783180363
   3  C       6.00    2.660567332   -2.504031301    1.210560445
   4  C       6.00   -2.660567332    2.504031301    1.210560445
   5  H       1.00   -1.154249441   -2.056231405    2.375054281
   6  H       1.00    1.154249441    2.056231405    2.375054281
   7  C       6.00   -1.134539031   -2.565398078   -1.613481991
   8  C       6.00    1.134539031    2.565398078   -1.613481991
   9  H       1.00    2.616858533   -4.534133274    1.535813492
  10  H       1.00   -2.616858533    4.534133274    1.535813492
  11  H       1.00    3.864224985   -2.171826708   -0.423941726
  12  H       1.00   -3.864224985    2.171826708   -0.423941726
  13  H       1.00    3.556090023   -1.628257382    2.840038590
  14  H       1.00   -3.556090023    1.628257382    2.840038590
  15  H       1.00    0.094773734   -2.232438918   -3.227599875
  16  H       1.00   -0.094773734    2.232438918   -3.227599875
  17  H       1.00   -1.388283707   -4.597218946   -1.438453857
  18  H       1.00    1.388283707    4.597218946   -1.438453857
  19  H       1.00   -2.968498204   -1.740006903   -2.041176335
  20  H       1.00    2.968498204    1.740006903   -2.041176335

 Bond lengths in Bohr (Angstrom)

 1-2  2.911266471  1-4  2.879517408  1-6  2.063317729  1-8  2.879670465  2-3  2.879517408
     ( 1.540575871)     ( 1.523774991)     ( 1.091860721)     ( 1.523855985)     ( 1.523774991)

  2- 5  2.063317729   2- 7  2.879670465   3- 9  2.056456667   3-11  2.056878457   3-13  2.055271241
       ( 1.091860721)       ( 1.523855985)       ( 1.088230004)       ( 1.088453205)       ( 1.087602703)

  4-10  2.056456667   4-12  2.056878457   4-14  2.055271241   7-15  2.056075927   7-17  2.055071105
       ( 1.088230004)       ( 1.088453205)       ( 1.087602703)       ( 1.088028525)       ( 1.087496796)

  7-19  2.056112665   8-16  2.056075927   8-18  2.055071105   8-20  2.056112665
       ( 1.088047965)       ( 1.088028525)       ( 1.087496796)       ( 1.088047965)

 Bond angles

  1- 2- 3  111.85716379   1- 2- 5  106.62191359   1- 2- 7  112.44707730   1- 4-10  111.30754942

  1- 4-12  111.18022733   1- 4-14  111.29354834   1- 8-16  110.65289770   1- 8-18  111.06077852

  1- 8-20  111.95293704   2- 1- 4  111.85716379   2- 1- 6  106.62191359   2- 1- 8  112.44707730

  2- 3- 9  111.30754942   2- 3-11  111.18022733   2- 3-13  111.29354834   2- 7-15  110.65289770

  2- 7-17  111.06077852   2- 7-19  111.95293704   3- 2- 5  107.43577620   3- 2- 7  110.46241674

  4-1-6  107.43577620   4-1-8  110.46241674   5-2-7  107.72706582   6-1-8  107.72706582

  9- 3-11  107.31115137   9- 3-13  107.72904426  10- 4-12  107.31115137  10- 4-14  107.72904426

 11- 3-13  107.83184857  12- 4-14  107.83184857  15- 7-17  107.50517599  15- 7-19  107.75736744

 16- 8-18  107.50517599  16- 8-20  107.75736744  17- 7-19  107.72660905  18- 8-20  107.72660905

 NUCLEAR CHARGE:                   50
 NUMBER OF PRIMITIVE AOS:         260
 NUMBER OF SYMMETRY AOS:          254
 NUMBER OF CONTRACTIONS:          154   (   77A   +   77B   )
 NUMBER OF INNER CORE ORBITALS:     0   (    0A   +    0B   )
 NUMBER OF OUTER CORE ORBITALS:     6   (    3A   +    3B   )
 NUMBER OF VALENCE ORBITALS:       38   (   19A   +   19B   )


 NUCLEAR REPULSION ENERGY  265.42164491

 Eigenvalues of metric

         1 0.363E-02 0.571E-02 0.140E-01 0.164E-01 0.199E-01 0.227E-01 0.275E-01 0.329E-01
         2 0.231E-02 0.352E-02 0.617E-02 0.145E-01 0.163E-01 0.195E-01 0.253E-01 0.296E-01


 Contracted 2-electron integrals neglected if value below      1.0D-11
 AO integral compression algorithm  1   Integral accuracy      1.0D-11

     170.656 MB (compressed) written to integral file ( 52.2%)


 NUMBER OF SORTED TWO-ELECTRON INTEGRALS:   36075039.     BUFFER LENGTH:  32768
 NUMBER OF SEGMENTS:   3  SEGMENT LENGTH:   15999984      RECORD LENGTH: 524288

 Memory used in sort:      16.56 MW

 SORT1 READ    40853336. AND WROTE    35944229. INTEGRALS IN    104 RECORDS. CPU TIME:     0.60 SEC, REAL TIME:     0.92 SEC
 SORT2 READ    35944229. AND WROTE    36075039. INTEGRALS IN    651 RECORDS. CPU TIME:     0.84 SEC, REAL TIME:     1.01 SEC

 FILE SIZES:   FILE 1:   201.6 MBYTE,  FILE 4:   436.3 MBYTE,   TOTAL:    637.9 MBYTE

 OPERATOR DM      FOR CENTER  0  COORDINATES:    0.000000    0.000000    0.000000


 **********************************************************************************************************************************
 DATASETS  * FILE   NREC   LENGTH (MB)   RECORD NAMES
              1      19      176.65       500      610      700      900      950      970     1000      129      960     1100   
                                          VAR    BASINP    GEOM    SYMINP    ZMAT    AOBASIS   BASIS     P2S    ABASIS      S 
                                         1400     1410     1200     1210     1080     1600     1650     1300     1700   
                                           T        V       H0       H01     AOSYM     SMH    MOLCAS    ERIS     OPER   

 PROGRAMS   *        TOTAL       INT
 CPU TIMES  *        10.41     10.28
 REAL TIME  *        14.04 SEC
 DISK USED  *       608.98 MB
 **********************************************************************************************************************************


 Program * Restricted Hartree-Fock

 Orbital guess generated from atomic densities. Full valence occupancy:   22  22

 Initial occupancy:  13  12

 NELEC=   50   SYM=1   MS2= 0   THRE=1.0D-08   THRD=3.2D-06   THRG=3.2D-06  HFMA2=F  DIIS_START=2   DIIS_MAX=10   DIIS_INCORE=F

 Level shifts:    0.00 (CLOSED)    0.00 (OPEN)    0.30 (GAP_MIN)

 ITER           ETOT              DE          GRAD        DDIFF     DIIS  NEXP   TIME(IT)  TIME(TOT)  DIAG
   1     -235.28862452    -235.28862452     0.00D+00     0.12D+00     0     0       0.23      0.47    start
   2     -235.36764418      -0.07901966     0.58D-02     0.12D-01     1     0       0.24      0.71    diag
   3     -235.37703762      -0.00939343     0.22D-02     0.45D-02     2     0       0.25      0.96    diag
   4     -235.37849323      -0.00145561     0.74D-03     0.15D-02     3     0       0.24      1.20    diag
   5     -235.37852768      -0.00003445     0.13D-03     0.25D-03     4     0       0.25      1.45    diag
   6     -235.37853057      -0.00000289     0.34D-04     0.95D-04     5     0       0.24      1.69    diag
   7     -235.37853064      -0.00000007     0.46D-05     0.13D-04     6     0       0.26      1.95    diag
   8     -235.37853065      -0.00000001     0.13D-05     0.36D-05     7     0       0.24      2.19    fixocc
   9     -235.37853065      -0.00000000     0.34D-06     0.98D-06     8     0       0.24      2.43    diag
  10     -235.37853065      -0.00000000     0.10D-06     0.26D-06     0     0       0.24      2.67    diag/orth

 Final occupancy:  13  12

 !RHF STATE 1.1 Energy               -235.378530645577
  RHF One-electron energy            -842.243262051248
  RHF Two-electron energy             341.443086495099
  RHF Kinetic energy                  235.290269552782
  RHF Nuclear energy                  265.421644910571
  RHF Virial quotient                  -1.000375115779

 !RHF STATE 1.1 Dipole moment           0.00000000     0.00000000     0.03740466
 Dipole moment /Debye                   0.00000000     0.00000000     0.09507316

 Orbital energies:

           1.1          2.1          3.1          4.1          5.1          6.1          7.1          8.1          9.1         10.1
    -11.220334   -11.211515   -11.211011    -1.106401    -0.925632    -0.835389    -0.641324    -0.603133    -0.549145    -0.525643

          11.1         12.1         13.1         14.1         15.1
     -0.487591    -0.444546    -0.434253     0.177597     0.214914

           1.2          2.2          3.2          4.2          5.2          6.2          7.2          8.2          9.2         10.2
    -11.219755   -11.211512   -11.211018    -1.012072    -0.930794    -0.735747    -0.614136    -0.560537    -0.536127    -0.519146

          11.2         12.2         13.2         14.2
     -0.485844    -0.445939     0.212872     0.220745


 HOMO     13.1    -0.434253 =     -11.8166eV
 LUMO     14.1     0.177597 =       4.8327eV
 LUMO-HOMO         0.611850 =      16.6493eV

 Orbitals saved in record  2100.2


 **********************************************************************************************************************************
 DATASETS  * FILE   NREC   LENGTH (MB)   RECORD NAMES
              1      19      176.65       500      610      700      900      950      970     1000      129      960     1100   
                                          VAR    BASINP    GEOM    SYMINP    ZMAT    AOBASIS   BASIS     P2S    ABASIS      S 
                                         1400     1410     1200     1210     1080     1600     1650     1300     1700   
                                           T        V       H0       H01     AOSYM     SMH    MOLCAS    ERIS     OPER   

              2       4        0.89       700     1000      520     2100   
                                         GEOM     BASIS   MCVARS     RHF  

 PROGRAMS   *        TOTAL    HF-SCF       INT
 CPU TIMES  *        13.09      2.68     10.28
 REAL TIME  *        17.09 SEC
 DISK USED  *       608.98 MB
 **********************************************************************************************************************************

 Dump information in style XML to xml output                                                                      

 Orbitals will not be exported.

 **********************************************************************************************************************************

 HF/cc-pVDZ energy=   -235.378530645577

          HF-SCF
   -235.37853065
 **********************************************************************************************************************************
 Molpro calculation terminated
