
 Working directory              : /home/jovyan/scratch/molpro.X7MnJyVoRq/
 Global scratch directory       : /home/jovyan/scratch/molpro.X7MnJyVoRq/
 Wavefunction directory         : /home/jovyan/wfu/
 Main file repository           : /home/jovyan/scratch/molpro.X7MnJyVoRq/

 id        : cardiff

 Nodes                nprocs
 jupyter-c-2efrancisan    1
 GA implementation: MPI file
 GA implementation (serial work in mppx): MPI file

 Using customized tuning parameters: mindgm=1; mindgv=20; mindgc=4; mindgr=1; noblas=0; minvec=7
 default implementation of scratch files=df  


 Variables initialized (1031), CPU time= 0.00 sec
 
 
 
 geometry={
            3
     N          0.00000000      0.00000000     -1.14542900
     N          0.00000000      0.00000000     -0.01934100
     O          0.00000000      0.00000000      1.16477000
 }
 basis=cc-pVTZ
 angstrom
 
 
 hf; mp4
 
 
 
 {put,xml;noorbitals,nobasis}
 Commands initialized (841), CPU time= 0.01 sec, 704 directives.
 Default parameters read. Elapsed time= 0.08 sec

 Checking input...
 Passed
1


                                         ***  PROGRAM SYSTEM MOLPRO  ***
                                       Copyright, TTI GmbH Stuttgart, 2015
                                    Version 2023.1 linked Mon Jun  5 13:27:10 2023


 **********************************************************************************************************************************
 LABEL *                                                                                                                                                                 
  (16 PROC) 64 bit serial version                                                        DATE: 03-Aug-23          TIME: 10:33:43  
 **********************************************************************************************************************************

 SHA1:             9738a14712571edd23541b6d7c4f3a3d766f8287
 **********************************************************************************************************************************

 Memory per process:       805 MW
 Total memory per node:   1074 MW
 Total GA space:           268 MW

 GA preallocation disabled
 GA check enabled

 Geometry recognized as XYZ


 Variable memory set to 805.3 MW

 SETTING BASIS          =    CC-PVTZ


 Recomputing integrals since basis changed


 Using spherical harmonics

 Library entry N      S cc-pVTZ              selected for orbital group  1
 Library entry N      P cc-pVTZ              selected for orbital group  1
 Library entry N      D cc-pVTZ              selected for orbital group  1
 Library entry N      F cc-pVTZ              selected for orbital group  1
 Library entry O      S cc-pVTZ              selected for orbital group  2
 Library entry O      P cc-pVTZ              selected for orbital group  2
 Library entry O      D cc-pVTZ              selected for orbital group  2
 Library entry O      F cc-pVTZ              selected for orbital group  2


 PROGRAM * SEWARD (Integral evaluation for generally contracted gaussian basis sets)     Author: Roland Lindh, 1990

 Geometry written to block  1 of record 700


 Point group  C2v 



 ATOMIC COORDINATES

 NR  ATOM    CHARGE       X              Y              Z

   1  N       7.00    0.000000000    0.000000000   -2.164547105
   2  N       7.00    0.000000000    0.000000000   -0.036549193
   3  O       8.00    0.000000000    0.000000000    2.201096298

 Bond lengths in Bohr (Angstrom)

 1-2  2.127997912  2-3  2.237645491
     ( 1.126088000)     ( 1.184111000)

 Bond angles

  1-2-3  180.00000000

 NUCLEAR CHARGE:                   22
 NUMBER OF PRIMITIVE AOS:         141
 NUMBER OF SYMMETRY AOS:          126
 NUMBER OF CONTRACTIONS:           90   (   39A1  +   21B1  +   21B2  +    9A2  )
 NUMBER OF INNER CORE ORBITALS:     0   (    0A1  +    0B1  +    0B2  +    0A2  )
 NUMBER OF OUTER CORE ORBITALS:     3   (    3A1  +    0B1  +    0B2  +    0A2  )
 NUMBER OF VALENCE ORBITALS:       12   (    6A1  +    3B1  +    3B2  +    0A2  )


 NUCLEAR REPULSION ENERGY   60.88007743

 EXTRA SYMMETRY OF AOS IN SYMMETRY 1:   1 1 1 1 1 1 1 1 2 1   2 1 2 1 1 1 1 1 1 1   1 2 1 2 1 2 1 1 1 1   1 1 1 1 2 1 2 1 2
 EXTRA SYMMETRY OF AOS IN SYMMETRY 2:   1 1 1 1 1 1 2 1 1 1   1 1 1 2 1 1 1 1 1 1   2
 EXTRA SYMMETRY OF AOS IN SYMMETRY 3:   1 1 1 1 1 1 2 1 1 1   1 1 1 2 1 1 1 1 1 1   2

 Eigenvalues of metric

         1 0.710E-03 0.163E-02 0.247E-02 0.361E-02 0.107E-01 0.286E-01 0.311E-01 0.437E-01
         2 0.207E-01 0.319E-01 0.468E-01 0.689E-01 0.815E-01 0.155E+00 0.326E+00 0.378E+00
         3 0.207E-01 0.319E-01 0.468E-01 0.689E-01 0.815E-01 0.155E+00 0.326E+00 0.378E+00
         4 0.305E+00 0.417E+00 0.554E+00 0.604E+00 0.907E+00 0.126E+01 0.131E+01 0.168E+01


 Contracted 2-electron integrals neglected if value below      1.0D-11
 AO integral compression algorithm  1   Integral accuracy      1.0D-11

     10.486 MB (compressed) written to integral file ( 48.2%)


 NUMBER OF SORTED TWO-ELECTRON INTEGRALS:    2232423.     BUFFER LENGTH:  32768
 NUMBER OF SEGMENTS:   1  SEGMENT LENGTH:    2232423      RECORD LENGTH: 524288

 Memory used in sort:       2.79 MW

 SORT1 READ     2718252. AND WROTE     1815347. INTEGRALS IN      6 RECORDS. CPU TIME:     0.06 SEC, REAL TIME:     0.19 SEC
 SORT2 READ     1815347. AND WROTE     2232423. INTEGRALS IN     40 RECORDS. CPU TIME:     0.09 SEC, REAL TIME:     0.11 SEC

 FILE SIZES:   FILE 1:    40.7 MBYTE,  FILE 4:    25.2 MBYTE,   TOTAL:     65.9 MBYTE

 OPERATOR DM      FOR CENTER  0  COORDINATES:    0.000000    0.000000    0.000000


 **********************************************************************************************************************************
 DATASETS  * FILE   NREC   LENGTH (MB)   RECORD NAMES
              1      19       36.87       500      610      700      900      950      970     1000      129      960     1100   
                                          VAR    BASINP    GEOM    SYMINP    ZMAT    AOBASIS   BASIS     P2S    ABASIS      S 
                                         1400     1410     1200     1210     1080     1600     1650     1300     1700   
                                           T        V       H0       H01     AOSYM     SMH    MOLCAS    ERIS     OPER   

 PROGRAMS   *        TOTAL       INT
 CPU TIMES  *         1.37      1.24
 REAL TIME  *         2.78 SEC
 DISK USED  *        63.26 MB
 **********************************************************************************************************************************


 Program * Restricted Hartree-Fock

 Orbital guess generated from atomic densities. Full valence occupancy:    9   3   3   0

 Initial occupancy:   7   2   2   0

 NELEC=   22   SYM=1   MS2= 0   THRE=1.0D-08   THRD=3.2D-06   THRG=3.2D-06  HFMA2=F  DIIS_START=2   DIIS_MAX=10   DIIS_INCORE=F

 Level shifts:    0.00 (CLOSED)    0.00 (OPEN)    0.30 (GAP_MIN)

 ITER           ETOT              DE          GRAD        DDIFF     DIIS  NEXP   TIME(IT)  TIME(TOT)  DIAG
   1     -183.65349266    -183.65349266     0.00D+00     0.17D+00     0     0       0.01      0.03    start
   2     -183.69771002      -0.04421736     0.21D-01     0.29D-01     1     0       0.01      0.04    diag
   3     -183.74875544      -0.05104542     0.16D-01     0.15D-01     2     0       0.02      0.06    diag
   4     -183.74948470      -0.00072926     0.16D-02     0.22D-02     3     0       0.01      0.07    diag
   5     -183.74970021      -0.00021551     0.90D-03     0.11D-02     4     0       0.01      0.08    diag
   6     -183.74975803      -0.00005782     0.35D-03     0.55D-03     5     0       0.01      0.09    diag
   7     -183.74976651      -0.00000849     0.13D-03     0.25D-03     6     0       0.02      0.11    diag
   8     -183.74976689      -0.00000037     0.29D-04     0.52D-04     7     0       0.01      0.12    fixocc
   9     -183.74976689      -0.00000001     0.46D-05     0.88D-05     8     0       0.01      0.13    diag
  10     -183.74976689      -0.00000000     0.28D-06     0.49D-06     9     0       0.02      0.15    diag/orth
  11     -183.74976689      -0.00000000     0.58D-07     0.95D-07     0     0       0.01      0.16    diag

 Final occupancy:   7   2   2   0

 !RHF STATE 1.1 Energy               -183.749766894200
  RHF One-electron energy            -370.741840475197
  RHF Two-electron energy             126.111996150754
  RHF Kinetic energy                  183.365706619407
  RHF Nuclear energy                   60.880077430243
  RHF Virial quotient                  -1.002094504375

 !RHF STATE 1.1 Dipole moment           0.00000000     0.00000000    -0.23785526
 Dipole moment /Debye                   0.00000000     0.00000000    -0.60456778

 Orbital energies:

           1.1          2.1          3.1          4.1          5.1          6.1          7.1          8.1          9.1
    -20.653722   -15.843451   -15.695786    -1.612382    -1.422907    -0.831141    -0.696766     0.290736     0.421176

           1.2          2.2          3.2          4.2
     -0.761768    -0.489616     0.155361     0.550305

           1.3          2.3          3.3          4.3
     -0.761768    -0.489616     0.155361     0.550305

           1.4          2.4
      0.989815     1.383649


 HOMO      2.3    -0.489616 =     -13.3231eV
 LUMO      3.2     0.155361 =       4.2276eV
 LUMO-HOMO         0.644978 =      17.5507eV

 Orbitals saved in record  2100.2


 **********************************************************************************************************************************
 DATASETS  * FILE   NREC   LENGTH (MB)   RECORD NAMES
              1      19       36.87       500      610      700      900      950      970     1000      129      960     1100   
                                          VAR    BASINP    GEOM    SYMINP    ZMAT    AOBASIS   BASIS     P2S    ABASIS      S 
                                         1400     1410     1200     1210     1080     1600     1650     1300     1700   
                                           T        V       H0       H01     AOSYM     SMH    MOLCAS    ERIS     OPER   

              2       4        0.46       700     1000      520     2100   
                                         GEOM     BASIS   MCVARS     RHF  

 PROGRAMS   *        TOTAL    HF-SCF       INT
 CPU TIMES  *         1.53      0.16      1.24
 REAL TIME  *         3.01 SEC
 DISK USED  *        63.26 MB
 **********************************************************************************************************************************


 PROGRAM * MP4 (Closed-shell)     Authors: C. Hampel, H.-J. Werner, 1991, M. Deegan, P.J. Knowles, 1992


 Convergence thresholds:  THRVAR = 1.00D-08  THRDEN = 1.00D-06

 MP4(T)     terms to be evaluated (factor= 0.000)


 Number of core orbitals:           3 (   3   0   0   0 )
 Number of closed-shell orbitals:   8 (   4   2   2   0 )
 Number of external orbitals:      79 (  32  19  19   9 )

 Molecular orbitals read from record     2100.2  Type=RHF/CANONICAL  

 Number of N-1 electron functions:               8
 Number of N-2 electron functions:              36
 Number of singly external CSFs:               204
 Number of doubly external CSFs:             52360
 Total number of CSFs:                       52565

 Length of J-op  integral file:               0.00 MB
 Length of K-op  integral file:               0.23 MB

 Memory could be reduced to 1.47 Mwords without degradation in triples

 Integral transformation finished. Total CPU:   0.06 sec, npass=  1  Memory used:   0.35 MW

 Reference energy:                   -183.74976689

                        CORR.ENERGY   TOTAL ENERGY   ENERGY CHANGE
 MP2:                   -0.64240706  -184.39217396    -0.64240706

 SCS-MP2 correlation energy:           -0.61994455   (PS=  1.200000  PT=  0.333333)
 SCS-MP2 total energy:               -184.36971144

 MP3(D):                -0.61147824  -184.36124513     0.03092882
 MP4(DQ):               -0.61372281  -184.36348970    -0.00224457
 MP4(SDQ):              -0.62795288  -184.37771977    -0.01423007

 Norm of t1 vector:      0.10757640      S-energy:    -0.01423007      T1 diagnostic:  0.01901700


 Total CPU time for triples:      0.52 sec


 RESULTS
 =======

  Reference energy                   -183.749766894200
  MP4(SDQ) singlet pair energy         -0.387456563185
  MP4(SDQ) triplet pair energy         -0.226266243972
  MP4(SDQ) correlation energy          -0.627952876403

  Triples contribution                 -0.047343068118
  Total correlation energy             -0.675295944521

  MP4(SDQ) total energy              -184.377719770603
 !MP4(SDTQ) total energy             -184.425062838720

 Timing summary (sec):

 STEP                 CPU(USER)    SYS     CPU(TOT)    WALL
 Transformation          0.06      0.02      0.08      0.24
 CCSD iterations         1.92      0.02      1.94      0.14
 Triples                 0.52      0.05      0.57      0.60

 Program statistics:

 Available memory in ccsd:               805306105
 Min. memory needed in ccsd:                172011
 Max. memory used in ccsd:                  213567
 Max. memory used in cckext:                236591 ( 1 integral passes)



 **********************************************************************************************************************************
 DATASETS  * FILE   NREC   LENGTH (MB)   RECORD NAMES
              1      20       41.73       500      610      700      900      950      970     1000      129      960     1100   
                                          VAR    BASINP    GEOM    SYMINP    ZMAT    AOBASIS   BASIS     P2S    ABASIS      S 
                                         1400     1410     1200     1210     1080     1600     1650     1300     1700     1380   
                                           T        V       H0       H01     AOSYM     SMH    MOLCAS    ERIS     OPER     JKOP   

              2       4        0.46       700     1000      520     2100   
                                         GEOM     BASIS   MCVARS     RHF  

 PROGRAMS   *        TOTAL       MP4    HF-SCF       INT
 CPU TIMES  *         2.26      0.72      0.16      1.24
 REAL TIME  *         4.03 SEC
 DISK USED  *        63.26 MB
 **********************************************************************************************************************************

 Dump information in style XML to xml output                                                                      

 Orbitals will not be exported.

 **********************************************************************************************************************************

 MP4/cc-pVTZ energy=   -184.425062838720

             MP4          HF-SCF
   -184.42506284   -183.74976689
 **********************************************************************************************************************************
 Molpro calculation terminated
