
 Working directory              : /home/jovyan/scratch/molpro.qfpSxAX8eW/
 Global scratch directory       : /home/jovyan/scratch/molpro.qfpSxAX8eW/
 Wavefunction directory         : /home/jovyan/wfu/
 Main file repository           : /home/jovyan/scratch/molpro.qfpSxAX8eW/

 id        : cardiff

 Nodes                nprocs
 jupyter-c-2efrancisan    1
 GA implementation: MPI file
 GA implementation (serial work in mppx): MPI file

 Using customized tuning parameters: mindgm=1; mindgv=20; mindgc=4; mindgr=1; noblas=0; minvec=7
 default implementation of scratch files=df  


 Variables initialized (1031), CPU time= 0.01 sec
 
 
 
 geometry={
 8
  4HF-TS (Full point group D4h)
  H 0.000000 1.264867 0.000000
  H 1.264867 0.000000 0.000000
  H 0.000000 -1.264867 0.000000
  H -1.264867 0.000000 0.000000
  F 1.142134 1.142134 0.000000
  F 1.142134 -1.142134 0.000000
  F -1.142134 -1.142134 0.000000
  F -1.142134 1.142134 0.000000
 }
 basis=cc-pVTZ
 angstrom
 
 
 hf
 
 
 
 {put,xml;noorbitals,nobasis}
 Commands initialized (841), CPU time= 0.01 sec, 704 directives.
 Default parameters read. Elapsed time= 0.08 sec

 Checking input...
 Passed
1


                                         ***  PROGRAM SYSTEM MOLPRO  ***
                                       Copyright, TTI GmbH Stuttgart, 2015
                                    Version 2023.1 linked Mon Jun  5 13:27:10 2023


 **********************************************************************************************************************************
 LABEL *                                                                                                                                                                 
  (16 PROC) 64 bit serial version                                                        DATE: 03-Aug-23          TIME: 12:33:14  
 **********************************************************************************************************************************

 SHA1:             9738a14712571edd23541b6d7c4f3a3d766f8287
 **********************************************************************************************************************************

 Memory per process:       805 MW
 Total memory per node:   1074 MW
 Total GA space:           268 MW

 GA preallocation disabled
 GA check enabled

 Geometry recognized as XYZ


 Variable memory set to 805.3 MW

 SETTING BASIS          =    CC-PVTZ


 Recomputing integrals since basis changed


 Using spherical harmonics

 Library entry H      S cc-pVTZ              selected for orbital group  1
 Library entry H      P cc-pVTZ              selected for orbital group  1
 Library entry H      D cc-pVTZ              selected for orbital group  1
 Library entry F      S cc-pVTZ              selected for orbital group  2
 Library entry F      P cc-pVTZ              selected for orbital group  2
 Library entry F      D cc-pVTZ              selected for orbital group  2
 Library entry F      F cc-pVTZ              selected for orbital group  2


 PROGRAM * SEWARD (Integral evaluation for generally contracted gaussian basis sets)     Author: Roland Lindh, 1990

 Geometry written to block  1 of record 700


 Point group  D2h 



 ATOMIC COORDINATES

 NR  ATOM    CHARGE       X              Y              Z

   1  H       1.00    0.000000000    2.390252214    0.000000000
   2  H       1.00    0.000000000   -2.390252214    0.000000000
   3  H       1.00    2.390252214    0.000000000    0.000000000
   4  H       1.00   -2.390252214    0.000000000    0.000000000
   5  F       9.00    2.158320458    2.158320458    0.000000000
   6  F       9.00    2.158320458   -2.158320458    0.000000000
   7  F       9.00   -2.158320458   -2.158320458    0.000000000
   8  F       9.00   -2.158320458    2.158320458    0.000000000

 Bond lengths in Bohr (Angstrom)

 1-5  2.170746309  1-8  2.170746309  2-6  2.170746309  2-7  2.170746309  3-5  2.170746309
     ( 1.148709477)     ( 1.148709477)     ( 1.148709477)     ( 1.148709477)     ( 1.148709477)

 3-6  2.170746309  4-7  2.170746309  4-8  2.170746309
     ( 1.148709477)     ( 1.148709477)     ( 1.148709477)

 Bond angles

  1-5-3  102.26686399   1-8-4  102.26686399   2-6-3  102.26686399   2-7-4  102.26686399

  5-1-8  167.73313601   5-3-6  167.73313601   6-2-7  167.73313601   7-4-8  167.73313601

 NUCLEAR CHARGE:                   40
 NUMBER OF PRIMITIVE AOS:         256
 NUMBER OF SYMMETRY AOS:          232
 NUMBER OF CONTRACTIONS:          176   (   34Ag  +   30B3u +   30B2u +   26B1g +   16B1u +   14B2g +   14B3g +   12Au  )
 NUMBER OF INNER CORE ORBITALS:     0   (    0Ag  +    0B3u +    0B2u +    0B1g +    0B1u +    0B2g +    0B3g +    0Au  )
 NUMBER OF OUTER CORE ORBITALS:     4   (    1Ag  +    1B3u +    1B2u +    1B1g +    0B1u +    0B2g +    0B3g +    0Au  )
 NUMBER OF VALENCE ORBITALS:       20   (    5Ag  +    4B3u +    4B2u +    3B1g +    1B1u +    1B2g +    1B3g +    1Au  )


 NUCLEAR REPULSION ENERGY  150.66635073


 Eigenvalues of metric

         1 0.385E-02 0.499E-02 0.818E-02 0.250E-01 0.267E-01 0.282E-01 0.561E-01 0.595E-01
         2 0.336E-02 0.721E-02 0.141E-01 0.273E-01 0.486E-01 0.568E-01 0.896E-01 0.117E+00
         3 0.336E-02 0.721E-02 0.141E-01 0.273E-01 0.486E-01 0.568E-01 0.896E-01 0.117E+00
         4 0.390E-02 0.140E-01 0.183E-01 0.500E-01 0.517E-01 0.155E+00 0.174E+00 0.195E+00
         5 0.539E-01 0.110E+00 0.235E+00 0.431E+00 0.443E+00 0.531E+00 0.870E+00 0.879E+00
         6 0.517E-01 0.143E+00 0.267E+00 0.443E+00 0.463E+00 0.686E+00 0.885E+00 0.950E+00
         7 0.517E-01 0.143E+00 0.267E+00 0.443E+00 0.463E+00 0.686E+00 0.885E+00 0.950E+00
         8 0.500E-01 0.248E+00 0.266E+00 0.370E+00 0.675E+00 0.712E+00 0.100E+01 0.110E+01


 Contracted 2-electron integrals neglected if value below      1.0D-11
 AO integral compression algorithm  1   Integral accuracy      1.0D-11

     108.528 MB (compressed) written to integral file ( 54.7%)


 NUMBER OF SORTED TWO-ELECTRON INTEGRALS:   15789716.     BUFFER LENGTH:  32768
 NUMBER OF SEGMENTS:   1  SEGMENT LENGTH:   15789716      RECORD LENGTH: 524288

 Memory used in sort:      16.35 MW

 SORT1 READ    24860876. AND WROTE    15764354. INTEGRALS IN     46 RECORDS. CPU TIME:     1.01 SEC, REAL TIME:     1.29 SEC
 SORT2 READ    15764354. AND WROTE    15789716. INTEGRALS IN    414 RECORDS. CPU TIME:     0.56 SEC, REAL TIME:     0.65 SEC

 FILE SIZES:   FILE 1:   139.3 MBYTE,  FILE 4:   193.0 MBYTE,   TOTAL:    332.4 MBYTE

 OPERATOR DM      FOR CENTER  0  COORDINATES:    0.000000    0.000000    0.000000


 **********************************************************************************************************************************
 DATASETS  * FILE   NREC   LENGTH (MB)   RECORD NAMES
              1      19       96.20       500      610      700      900      950      970     1000      129      960     1100   
                                          VAR    BASINP    GEOM    SYMINP    ZMAT    AOBASIS   BASIS     P2S    ABASIS      S 
                                         1400     1410     1200     1210     1080     1600     1650     1300     1700   
                                           T        V       H0       H01     AOSYM     SMH    MOLCAS    ERIS     OPER   

 PROGRAMS   *        TOTAL       INT
 CPU TIMES  *         7.65      7.52
 REAL TIME  *         9.66 SEC
 DISK USED  *       317.45 MB
 **********************************************************************************************************************************


 Program * Restricted Hartree-Fock

 Orbital guess generated from atomic densities. Full valence occupancy:    6   5   5   4   1   1   1   1


 Initial occupancy:   4   4   4   4   1   1   1   1

 NELEC=   40   SYM=1   MS2= 0   THRE=1.0D-08   THRD=3.2D-06   THRG=3.2D-06  HFMA2=F  DIIS_START=2   DIIS_MAX=10   DIIS_INCORE=F

 Level shifts:    0.00 (CLOSED)    0.00 (OPEN)    0.30 (GAP_MIN)

 ITER           ETOT              DE          GRAD        DDIFF     DIIS  NEXP   TIME(IT)  TIME(TOT)  DIAG
   1     -400.16352720    -400.16352720     0.00D+00     0.18D+00     0     0       0.05      0.09    start
   2     -400.21055981      -0.04703261     0.14D-01     0.15D-01     1     0       0.05      0.14    diag
   3     -400.22032891      -0.00976910     0.67D-02     0.50D-02     2     0       0.04      0.18    diag
   4     -400.22051678      -0.00018787     0.79D-03     0.70D-03     3     0       0.04      0.22    diag
   5     -400.22052547      -0.00000868     0.14D-03     0.14D-03     4     0       0.05      0.27    diag
   6     -400.22052582      -0.00000036     0.21D-04     0.27D-04     5     0       0.04      0.31    diag
   7     -400.22052584      -0.00000002     0.48D-05     0.66D-05     6     0       0.04      0.35    diag
   8     -400.22052584      -0.00000000     0.62D-06     0.95D-06     7     0       0.04      0.39    fixocc
   9     -400.22052584      -0.00000000     0.81D-07     0.99D-07     0     0       0.04      0.43    diag

 Final occupancy:   4   4   4   4   1   1   1   1

 !RHF STATE 1.1 Energy               -400.220525842492
  RHF One-electron energy            -860.805581400891
  RHF Two-electron energy             309.918704832638
  RHF Kinetic energy                  399.853735034952
  RHF Nuclear energy                  150.666350725761
  RHF Virial quotient                  -1.000917312446

 !RHF STATE 1.1 Dipole moment           0.00000000     0.00000000     0.00000000
 Dipole moment /Debye                   0.00000000     0.00000000     0.00000000

 Orbital energies:

           1.1          2.1          3.1          4.1          5.1          6.1
    -26.323619    -1.667734    -0.879462    -0.812139     0.181353     0.308701

           1.2          2.2          3.2          4.2          5.2          6.2
    -26.323643    -1.625776    -0.821805    -0.660789     0.261997     0.575761

           1.3          2.3          3.3          4.3          5.3          6.3
    -26.323643    -1.625776    -0.821805    -0.660789     0.261997     0.575761

           1.4          2.4          3.4          4.4          5.4          6.4
    -26.323665    -1.582607    -0.643498    -0.642927     0.866793     0.933719

           1.5          2.5          3.5
     -0.709446     0.720731     0.847079

           1.6          2.6          3.6
     -0.685415     0.811446     1.067920

           1.7          2.7          3.7
     -0.685415     0.811446     1.067920

           1.8          2.8          3.8
     -0.664130     1.043502     2.150125


 HOMO      4.4    -0.642927 =     -17.4949eV
 LUMO      5.1     0.181353 =       4.9349eV
 LUMO-HOMO         0.824280 =      22.4298eV

 Orbitals saved in record  2100.2


 **********************************************************************************************************************************
 DATASETS  * FILE   NREC   LENGTH (MB)   RECORD NAMES
              1      19       96.20       500      610      700      900      950      970     1000      129      960     1100   
                                          VAR    BASINP    GEOM    SYMINP    ZMAT    AOBASIS   BASIS     P2S    ABASIS      S 
                                         1400     1410     1200     1210     1080     1600     1650     1300     1700   
                                           T        V       H0       H01     AOSYM     SMH    MOLCAS    ERIS     OPER   

              2       4        0.60       700     1000      520     2100   
                                         GEOM     BASIS   MCVARS     RHF  

 PROGRAMS   *        TOTAL    HF-SCF       INT
 CPU TIMES  *         8.08      0.43      7.52
 REAL TIME  *        10.18 SEC
 DISK USED  *       317.45 MB
 **********************************************************************************************************************************

 Dump information in style XML to xml output                                                                      

 Orbitals will not be exported.

 **********************************************************************************************************************************

 HF/cc-pVTZ energy=   -400.220525842492

          HF-SCF
   -400.22052584
 **********************************************************************************************************************************
 Molpro calculation terminated
