
 Working directory              : /home/jovyan/scratch/molpro.rGAlMYXYh2/
 Global scratch directory       : /home/jovyan/scratch/molpro.rGAlMYXYh2/
 Wavefunction directory         : /home/jovyan/wfu/
 Main file repository           : /home/jovyan/scratch/molpro.rGAlMYXYh2/

 id        : cardiff

 Nodes                nprocs
 jupyter-c-2efrancisan    1
 GA implementation: MPI file
 GA implementation (serial work in mppx): MPI file

 Using customized tuning parameters: mindgm=1; mindgv=20; mindgc=4; mindgr=1; noblas=0; minvec=7
 default implementation of scratch files=df  


 Variables initialized (1031), CPU time= 0.01 sec
 
 
 
 geometry={
 8
  C     0.0000000   -0.0000000   -0.7565307
  C     0.0000000    0.0000000    0.7565307
  H     0.8767674    0.5062019   -1.1518715
  H    -0.0000000   -1.0124038   -1.1518715
  H    -0.8767674    0.5062019   -1.1518715
  H    -0.8767674   -0.5062019    1.1518715
  H     0.8767674   -0.5062019    1.1518715
  H    -0.0000000    1.0124038    1.1518715
 }
 basis=cc-pVTZ
 angstrom
 
 
 hf; ccsd(t)
 
 
 
 {put,xml;noorbitals,nobasis}
 Commands initialized (841), CPU time= 0.01 sec, 704 directives.
 Default parameters read. Elapsed time= 0.08 sec

 Checking input...
 Passed
1


                                         ***  PROGRAM SYSTEM MOLPRO  ***
                                       Copyright, TTI GmbH Stuttgart, 2015
                                    Version 2023.1 linked Mon Jun  5 13:27:10 2023


 **********************************************************************************************************************************
 LABEL *                                                                                                                                                                 
  (16 PROC) 64 bit serial version                                                        DATE: 04-Aug-23          TIME: 11:18:17  
 **********************************************************************************************************************************

 SHA1:             9738a14712571edd23541b6d7c4f3a3d766f8287
 **********************************************************************************************************************************

 Memory per process:       805 MW
 Total memory per node:   1074 MW
 Total GA space:           268 MW

 GA preallocation disabled
 GA check enabled

 Geometry recognized as XYZ


 Variable memory set to 805.3 MW

 SETTING BASIS          =    CC-PVTZ


 Recomputing integrals since basis changed


 Using spherical harmonics

 Library entry C      S cc-pVTZ              selected for orbital group  1
 Library entry C      P cc-pVTZ              selected for orbital group  1
 Library entry C      D cc-pVTZ              selected for orbital group  1
 Library entry C      F cc-pVTZ              selected for orbital group  1
 Library entry H      S cc-pVTZ              selected for orbital group  2
 Library entry H      P cc-pVTZ              selected for orbital group  2
 Library entry H      D cc-pVTZ              selected for orbital group  2


 PROGRAM * SEWARD (Integral evaluation for generally contracted gaussian basis sets)     Author: Roland Lindh, 1990

 Geometry written to block  1 of record 700


 Point group  C2h 



 ATOMIC COORDINATES

 NR  ATOM    CHARGE       X              Y              Z

   1  C       6.00    0.000000000    0.000000000   -1.429635828
   2  C       6.00    0.000000000    0.000000000    1.429635828
   3  H       1.00    1.656850261    0.956582955   -2.176721666
   4  H       1.00   -1.656850261    0.956582955   -2.176721666
   5  H       1.00   -1.656850261   -0.956582955    2.176721666
   6  H       1.00    1.656850261   -0.956582955    2.176721666
   7  H       1.00    0.000000000   -1.913165910   -2.176721666
   8  H       1.00    0.000000000    1.913165910    2.176721666

 Bond lengths in Bohr (Angstrom)

 1-2  2.859271656  1-3  2.053860021  1-4  2.053860021  1-7  2.053860036  2-5  2.053860021
     ( 1.513061400)     ( 1.086855918)     ( 1.086855918)     ( 1.086855925)     ( 1.086855918)

 2-6  2.053860021  2-8  2.053860036
     ( 1.086855918)     ( 1.086855925)

 Bond angles

  1-2-5  111.33050375   1-2-6  111.33050375   1-2-8  111.33050359   2-1-3  111.33050375

  2-1-4  111.33050375   2-1-7  111.33050359   3-1-4  107.54963893   3-1-7  107.54963966

  4-1-7  107.54963966   5-2-6  107.54963893   5-2-8  107.54963966   6-2-8  107.54963966

 NUCLEAR CHARGE:                   18
 NUMBER OF PRIMITIVE AOS:         196
 NUMBER OF SYMMETRY AOS:          180
 NUMBER OF CONTRACTIONS:          144   (   44Ag  +   28Au  +   44Bu  +   28Bg  )
 NUMBER OF INNER CORE ORBITALS:     0   (    0Ag  +    0Au  +    0Bu  +    0Bg  )
 NUMBER OF OUTER CORE ORBITALS:     2   (    1Ag  +    0Au  +    1Bu  +    0Bg  )
 NUMBER OF VALENCE ORBITALS:       14   (    5Ag  +    2Au  +    5Bu  +    2Bg  )


 NUCLEAR REPULSION ENERGY   42.52694634


 Eigenvalues of metric

         1 0.118E-02 0.162E-02 0.422E-02 0.108E-01 0.135E-01 0.171E-01 0.173E-01 0.294E-01
         2 0.167E-02 0.869E-02 0.241E-01 0.254E-01 0.446E-01 0.883E-01 0.118E+00 0.143E+00
         3 0.127E-02 0.165E-02 0.167E-02 0.322E-02 0.869E-02 0.101E-01 0.202E-01 0.241E-01
         4 0.162E-02 0.108E-01 0.171E-01 0.173E-01 0.373E-01 0.674E-01 0.953E-01 0.124E+00


 Contracted 2-electron integrals neglected if value below      1.0D-11
 AO integral compression algorithm  1   Integral accuracy      1.0D-11

     83.100 MB (compressed) written to integral file ( 54.5%)


 NUMBER OF SORTED TWO-ELECTRON INTEGRALS:   13957892.     BUFFER LENGTH:  32768
 NUMBER OF SEGMENTS:   1  SEGMENT LENGTH:   13957892      RECORD LENGTH: 524288

 Memory used in sort:      14.51 MW

 SORT1 READ    19057736. AND WROTE    13695244. INTEGRALS IN     40 RECORDS. CPU TIME:     0.36 SEC, REAL TIME:     0.54 SEC
 SORT2 READ    13695244. AND WROTE    13957892. INTEGRALS IN    317 RECORDS. CPU TIME:     0.44 SEC, REAL TIME:     0.53 SEC

 FILE SIZES:   FILE 1:   113.7 MBYTE,  FILE 4:   167.8 MBYTE,   TOTAL:    281.5 MBYTE

 OPERATOR DM      FOR CENTER  0  COORDINATES:    0.000000    0.000000    0.000000


 **********************************************************************************************************************************
 DATASETS  * FILE   NREC   LENGTH (MB)   RECORD NAMES
              1      19       88.41       500      610      700      900      950      970     1000      129      960     1100   
                                          VAR    BASINP    GEOM    SYMINP    ZMAT    AOBASIS   BASIS     P2S    ABASIS      S 
                                         1400     1410     1200     1210     1080     1600     1650     1300     1700   
                                           T        V       H0       H01     AOSYM     SMH    MOLCAS    ERIS     OPER   

 PROGRAMS   *        TOTAL       INT
 CPU TIMES  *         4.32      4.19
 REAL TIME  *         5.85 SEC
 DISK USED  *       268.95 MB
 **********************************************************************************************************************************


 Program * Restricted Hartree-Fock

 Orbital guess generated from atomic densities. Full valence occupancy:    6   2   6   2

 Initial occupancy:   4   1   3   1

 NELEC=   18   SYM=1   MS2= 0   THRE=1.0D-08   THRD=3.2D-06   THRG=3.2D-06  HFMA2=F  DIIS_START=2   DIIS_MAX=10   DIIS_INCORE=F

 Level shifts:    0.00 (CLOSED)    0.00 (OPEN)    0.30 (GAP_MIN)

 ITER           ETOT              DE          GRAD        DDIFF     DIIS  NEXP   TIME(IT)  TIME(TOT)  DIAG
   1      -79.22829365     -79.22829365     0.00D+00     0.11D+00     0     0       0.07      0.12    start
   2      -79.25560632      -0.02731268     0.78D-02     0.11D-01     1     0       0.05      0.17    diag
   3      -79.25936060      -0.00375427     0.31D-02     0.32D-02     2     0       0.06      0.23    diag
   4      -79.25992854      -0.00056794     0.91D-03     0.12D-02     3     0       0.06      0.29    diag
   5      -79.25993999      -0.00001145     0.11D-03     0.29D-03     4     0       0.06      0.35    diag
   6      -79.25994014      -0.00000015     0.13D-04     0.45D-04     5     0       0.05      0.40    diag
   7      -79.25994014      -0.00000000     0.14D-05     0.36D-05     6     0       0.06      0.46    diag
   8      -79.25994015      -0.00000000     0.23D-06     0.42D-06     7     0       0.06      0.52    fixocc
   9      -79.25994015      -0.00000000     0.34D-07     0.62D-07     0     0       0.05      0.57    diag

 Final occupancy:   4   1   3   1

 !RHF STATE 1.1 Energy                -79.259940145035
  RHF One-electron energy            -189.647588354526
  RHF Two-electron energy              67.860701871804
  RHF Kinetic energy                   79.220702707032
  RHF Nuclear energy                   42.526946337687
  RHF Virial quotient                  -1.000495292729

 !RHF STATE 1.1 Dipole moment           0.00000000     0.00000000     0.00000000
 Dipole moment /Debye                   0.00000000     0.00000000     0.00000000

 Orbital energies:

           1.1          2.1          3.1          4.1          5.1          6.1
    -11.208600    -1.021796    -0.513122    -0.485974     0.141511     0.237684

           1.2          2.2          3.2
     -0.598724     0.208937     0.414202

           1.3          2.3          3.3          4.3          5.3
    -11.207961    -0.842216    -0.598724     0.182642     0.208937

           1.4          2.4          3.4
     -0.485974     0.237684     0.401676


 HOMO      1.4    -0.485974 =     -13.2240eV
 LUMO      5.1     0.141511 =       3.8507eV
 LUMO-HOMO         0.627485 =      17.0747eV

 Orbitals saved in record  2100.2


 **********************************************************************************************************************************
 DATASETS  * FILE   NREC   LENGTH (MB)   RECORD NAMES
              1      19       88.41       500      610      700      900      950      970     1000      129      960     1100   
                                          VAR    BASINP    GEOM    SYMINP    ZMAT    AOBASIS   BASIS     P2S    ABASIS      S 
                                         1400     1410     1200     1210     1080     1600     1650     1300     1700   
                                           T        V       H0       H01     AOSYM     SMH    MOLCAS    ERIS     OPER   

              2       4        0.60       700     1000      520     2100   
                                         GEOM     BASIS   MCVARS     RHF  

 PROGRAMS   *        TOTAL    HF-SCF       INT
 CPU TIMES  *         4.90      0.57      4.19
 REAL TIME  *         6.60 SEC
 DISK USED  *       268.95 MB
 **********************************************************************************************************************************


 PROGRAM * CCSD (Closed-shell coupled cluster)     Authors: C. Hampel, H.-J. Werner, 1991, M. Deegan, P.J. Knowles, 1992


 Convergence thresholds:  THRVAR = 1.00D-08  THRDEN = 1.00D-06

 CCSD(T)     terms to be evaluated (factor= 1.000)


 Number of core orbitals:           2 (   1   0   1   0 )
 Number of closed-shell orbitals:   7 (   3   1   2   1 )
 Number of external orbitals:     135 (  40  27  41  27 )

 Molecular orbitals read from record     2100.2  Type=RHF/CANONICAL  

 Number of N-1 electron functions:               7
 Number of N-2 electron functions:              28
 Number of singly external CSFs:               256
 Number of doubly external CSFs:            112921
 Total number of CSFs:                      113178

 Length of J-op  integral file:               0.00 MB
 Length of K-op  integral file:               0.44 MB
 Length of 3-ext integral record:             0.00 MB

 Memory could be reduced to 6.23 Mwords without degradation in triples

 Integral transformation finished. Total CPU:   0.25 sec, npass=  1  Memory used:   1.08 MW

 Reference energy:                    -79.25994015

 MP2 singlet pair energy:              -0.25838805
 MP2 triplet pair energy:              -0.11151461
 MP2 correlation energy:               -0.36990266
 MP2 total energy:                    -79.62984281

 SCS-MP2 correlation energy:           -0.37945253   (PS=  1.200000  PT=  0.333333)
 SCS-MP2 total energy:                -79.63939268

 ITER.      SQ.NORM     CORR.ENERGY   TOTAL ENERGY   ENERGY CHANGE        DEN1      VAR(S)    VAR(P)  DIIS     TIME  TIME/IT
   1      1.12904389    -0.39892760   -79.65886774    -0.02902494    -0.01943495  0.89D-03  0.18D-02  1  1     5.69     0.32
   2      1.13845587    -0.40080443   -79.66074458    -0.00187683    -0.00974488  0.21D-04  0.15D-03  2  2     5.98     0.33
   3      1.14081660    -0.40088363   -79.66082377    -0.00007919    -0.00153312  0.25D-05  0.95D-05  3  3     6.29     0.33
   4      1.14138114    -0.40090208   -79.66084223    -0.00001846    -0.00025220  0.19D-06  0.47D-06  4  4     6.59     0.33
   5      1.14145785    -0.40090228   -79.66084243    -0.00000020    -0.00002982  0.19D-07  0.34D-07  5  5     6.90     0.33
   6      1.14146561    -0.40090107   -79.66084121     0.00000121    -0.00000330  0.21D-08  0.25D-08  6  6     7.20     0.33
   7      1.14146556    -0.40090098   -79.66084112     0.00000009     0.00000009  0.19D-09  0.20D-09  6  2     7.52     0.33
   8      1.14146586    -0.40090099   -79.66084114    -0.00000001    -0.00000019  0.23D-10  0.12D-10  6  1     7.82     0.33

 Norm of t1 vector:      0.03975732      S-energy:    -0.00000006      T1 diagnostic:  0.00751343
                                                                       D1 diagnostic:  0.01286847
                                                                       D2 diagnostic:  0.13968894 (internal)


 Total CPU time for triples:      1.97 sec


 RESULTS
 =======

  Reference energy                    -79.259940145035
  CCSD singlet pair energy             -0.294718129572
  CCSD triplet pair energy             -0.106182807729
  CCSD correlation energy              -0.400900992604

  Triples (T) contribution             -0.013374996642
  Total correlation energy             -0.414275989246

  CCSD total energy                   -79.660841137640
  CCSD[T] energy                      -79.674546750836
  CCSD-T energy                       -79.674076046492
 !CCSD(T) total energy                -79.674216134282

 Timing summary (sec):

 STEP                 CPU(USER)    SYS     CPU(TOT)    WALL
 Transformation          0.25      0.06      0.31      0.34
 CCSD iterations         7.59      0.21      7.80      2.69
 Triples                 1.97      0.10      2.07      2.09

 Program statistics:

 Available memory in ccsd:               805306168
 Min. memory needed in ccsd:                366179
 Max. memory used in ccsd:                  458414
 Max. memory used in cckext:                461357 ( 8 integral passes)



 **********************************************************************************************************************************
 DATASETS  * FILE   NREC   LENGTH (MB)   RECORD NAMES
              1      20      106.81       500      610      700      900      950      970     1000      129      960     1100   
                                          VAR    BASINP    GEOM    SYMINP    ZMAT    AOBASIS   BASIS     P2S    ABASIS      S 
                                         1400     1410     1200     1210     1080     1600     1650     1300     1700     1380   
                                           T        V       H0       H01     AOSYM     SMH    MOLCAS    ERIS     OPER     JKOP   

              2       4        0.60       700     1000      520     2100   
                                         GEOM     BASIS   MCVARS     RHF  

 PROGRAMS   *        TOTAL   CCSD(T)    HF-SCF       INT
 CPU TIMES  *         9.61      4.71      0.57      4.19
 REAL TIME  *        11.76 SEC
 DISK USED  *       268.95 MB
 **********************************************************************************************************************************

 Dump information in style XML to xml output                                                                      

 Orbitals will not be exported.

 **********************************************************************************************************************************

 CCSD(T)/cc-pVTZ energy=    -79.674216134282

         CCSD(T)          HF-SCF
    -79.67421613    -79.25994015
 **********************************************************************************************************************************
 Molpro calculation terminated
