
 Working directory              : /home/jovyan/scratch/molpro.Bl96guhs5F/
 Global scratch directory       : /home/jovyan/scratch/molpro.Bl96guhs5F/
 Wavefunction directory         : /home/jovyan/wfu/
 Main file repository           : /home/jovyan/scratch/molpro.Bl96guhs5F/

 id        : cardiff

 Nodes                nprocs
 jupyter-c-2efrancisan    1
 GA implementation: MPI file
 GA implementation (serial work in mppx): MPI file

 Using customized tuning parameters: mindgm=1; mindgv=20; mindgc=4; mindgr=1; noblas=0; minvec=7
 default implementation of scratch files=df  


 Variables initialized (1031), CPU time= 0.01 sec
 
 
 
 geometry={
 4
  S    -0.0687310    1.0220312   -0.4834061
  S     0.0687310   -1.0220312   -0.4834061
  H     0.8386269    1.2863190    0.4675986
  H    -0.8386269   -1.2863190    0.4675986
 }
 basis=cc-pVTZ
 angstrom
 
 
 hf; ccsd
 
 
 
 {put,xml;noorbitals,nobasis}
 Commands initialized (841), CPU time= 0.01 sec, 704 directives.
 Default parameters read. Elapsed time= 0.09 sec

 Checking input...
 Passed
1


                                         ***  PROGRAM SYSTEM MOLPRO  ***
                                       Copyright, TTI GmbH Stuttgart, 2015
                                    Version 2023.1 linked Mon Jun  5 13:27:10 2023


 **********************************************************************************************************************************
 LABEL *                                                                                                                                                                 
  (16 PROC) 64 bit serial version                                                        DATE: 04-Aug-23          TIME: 07:22:56  
 **********************************************************************************************************************************

 SHA1:             9738a14712571edd23541b6d7c4f3a3d766f8287
 **********************************************************************************************************************************

 Memory per process:       805 MW
 Total memory per node:   1074 MW
 Total GA space:           268 MW

 GA preallocation disabled
 GA check enabled

 Geometry recognized as XYZ


 Variable memory set to 805.3 MW

 SETTING BASIS          =    CC-PVTZ


 Recomputing integrals since basis changed


 Using spherical harmonics

 Library entry S      S cc-pVTZ              selected for orbital group  1
 Library entry S      P cc-pVTZ              selected for orbital group  1
 Library entry S      D cc-pVTZ              selected for orbital group  1
 Library entry S      F cc-pVTZ              selected for orbital group  1
 Library entry H      S cc-pVTZ              selected for orbital group  2
 Library entry H      P cc-pVTZ              selected for orbital group  2
 Library entry H      D cc-pVTZ              selected for orbital group  2


 PROGRAM * SEWARD (Integral evaluation for generally contracted gaussian basis sets)     Author: Roland Lindh, 1990

 Geometry written to block  1 of record 700


 Point group  C2  



 ATOMIC COORDINATES

 NR  ATOM    CHARGE       X              Y              Z

   1  S      16.00   -0.129882766    1.931359059   -0.913505136
   2  S      16.00    0.129882766   -1.931359059   -0.913505136
   3  H       1.00    1.584775162    2.430790619    0.883633290
   4  H       1.00   -1.584775162   -2.430790619    0.883633290

 Bond lengths in Bohr (Angstrom)

 1-2  3.871442804  1-3  2.533612089  2-4  2.533612089
     ( 2.048679305)     ( 1.340729779)     ( 1.340729779)

 Bond angles

  1-2-4   98.70045567   2-1-3   98.70045567

 NUCLEAR CHARGE:                   34
 NUMBER OF PRIMITIVE AOS:         162
 NUMBER OF SYMMETRY AOS:          150
 NUMBER OF CONTRACTIONS:           96   (   48A   +   48B   )
 NUMBER OF INNER CORE ORBITALS:     2   (    1A   +    1B   )
 NUMBER OF OUTER CORE ORBITALS:     8   (    4A   +    4B   )
 NUMBER OF VALENCE ORBITALS:       10   (    5A   +    5B   )


 NUCLEAR REPULSION ENERGY   85.40927887

 Eigenvalues of metric

         1 0.193E-02 0.566E-02 0.145E-01 0.243E-01 0.256E-01 0.332E-01 0.892E-01 0.100E+00
         2 0.198E-02 0.272E-02 0.654E-02 0.139E-01 0.256E-01 0.295E-01 0.312E-01 0.888E-01


 Contracted 2-electron integrals neglected if value below      1.0D-11
 AO integral compression algorithm  1   Integral accuracy      1.0D-11

     31.195 MB (compressed) written to integral file ( 46.1%)


 NUMBER OF SORTED TWO-ELECTRON INTEGRALS:    5533080.     BUFFER LENGTH:  32768
 NUMBER OF SEGMENTS:   1  SEGMENT LENGTH:    5533080      RECORD LENGTH: 524288

 Memory used in sort:       6.09 MW

 SORT1 READ     8479944. AND WROTE     4820065. INTEGRALS IN     14 RECORDS. CPU TIME:     0.07 SEC, REAL TIME:     0.20 SEC
 SORT2 READ     4820065. AND WROTE     5533080. INTEGRALS IN    119 RECORDS. CPU TIME:     0.17 SEC, REAL TIME:     0.20 SEC

 FILE SIZES:   FILE 1:    61.5 MBYTE,  FILE 4:    58.8 MBYTE,   TOTAL:    120.3 MBYTE

 OPERATOR DM      FOR CENTER  0  COORDINATES:    0.000000    0.000000    0.000000


 **********************************************************************************************************************************
 DATASETS  * FILE   NREC   LENGTH (MB)   RECORD NAMES
              1      19       49.38       500      610      700      900      950      970     1000      129      960     1100   
                                          VAR    BASINP    GEOM    SYMINP    ZMAT    AOBASIS   BASIS     P2S    ABASIS      S 
                                         1400     1410     1200     1210     1080     1600     1650     1300     1700   
                                           T        V       H0       H01     AOSYM     SMH    MOLCAS    ERIS     OPER   

 PROGRAMS   *        TOTAL       INT
 CPU TIMES  *         1.62      1.48
 REAL TIME  *         2.85 SEC
 DISK USED  *       115.09 MB
 **********************************************************************************************************************************


 Program * Restricted Hartree-Fock

 Orbital guess generated from atomic densities. Full valence occupancy:   10  10

 Initial occupancy:   9   8

 NELEC=   34   SYM=1   MS2= 0   THRE=1.0D-08   THRD=3.2D-06   THRG=3.2D-06  HFMA2=F  DIIS_START=2   DIIS_MAX=10   DIIS_INCORE=F

 Level shifts:    0.00 (CLOSED)    0.00 (OPEN)    0.30 (GAP_MIN)

 ITER           ETOT              DE          GRAD        DDIFF     DIIS  NEXP   TIME(IT)  TIME(TOT)  DIAG
   1     -796.23343663    -796.23343663     0.00D+00     0.16D+00     0     0       0.04      0.07    start
   2     -796.25789239      -0.02445576     0.48D-02     0.83D-02     1     0       0.03      0.10    diag
   3     -796.26038520      -0.00249282     0.16D-02     0.16D-02     2     0       0.04      0.14    diag
   4     -796.26083655      -0.00045135     0.49D-03     0.77D-03     3     0       0.03      0.17    diag
   5     -796.26086139      -0.00002484     0.11D-03     0.20D-03     4     0       0.04      0.21    diag
   6     -796.26086242      -0.00000103     0.24D-04     0.50D-04     5     0       0.03      0.24    diag
   7     -796.26086251      -0.00000009     0.68D-05     0.16D-04     6     0       0.04      0.28    diag
   8     -796.26086252      -0.00000001     0.24D-05     0.58D-05     7     0       0.03      0.31    fixocc
   9     -796.26086252      -0.00000000     0.66D-06     0.23D-05     8     0       0.04      0.35    diag
  10     -796.26086252      -0.00000000     0.22D-06     0.45D-06     0     0       0.04      0.39    diag/orth

 Final occupancy:   9   8

 !RHF STATE 1.1 Energy               -796.260862522487
  RHF One-electron energy           -1270.723157772603
  RHF Two-electron energy             389.053016383604
  RHF Kinetic energy                  796.240865798879
  RHF Nuclear energy                   85.409278866511
  RHF Virial quotient                  -1.000025113913

 !RHF STATE 1.1 Dipole moment           0.00000000     0.00000000     0.52361590
 Dipole moment /Debye                   0.00000000     0.00000000     1.33089887

 Orbital energies:

           1.1          2.1          3.1          4.1          5.1          6.1          7.1          8.1          9.1         10.1
    -91.988411    -8.988892    -6.670001    -6.668828    -6.667657    -1.060213    -0.600592    -0.479776    -0.379943     0.125729

          11.1
      0.295976

           1.2          2.2          3.2          4.2          5.2          6.2          7.2          8.2          9.2         10.2
    -91.988409    -8.988699    -6.669698    -6.668703    -6.667658    -0.884888    -0.549810    -0.386389     0.104732     0.150103


 HOMO      9.1    -0.379943 =     -10.3388eV
 LUMO      9.2     0.104732 =       2.8499eV
 LUMO-HOMO         0.484675 =      13.1887eV

 Orbitals saved in record  2100.2


 **********************************************************************************************************************************
 DATASETS  * FILE   NREC   LENGTH (MB)   RECORD NAMES
              1      19       49.38       500      610      700      900      950      970     1000      129      960     1100   
                                          VAR    BASINP    GEOM    SYMINP    ZMAT    AOBASIS   BASIS     P2S    ABASIS      S 
                                         1400     1410     1200     1210     1080     1600     1650     1300     1700   
                                           T        V       H0       H01     AOSYM     SMH    MOLCAS    ERIS     OPER   

              2       4        0.51       700     1000      520     2100   
                                         GEOM     BASIS   MCVARS     RHF  

 PROGRAMS   *        TOTAL    HF-SCF       INT
 CPU TIMES  *         2.01      0.39      1.48
 REAL TIME  *         3.44 SEC
 DISK USED  *       115.09 MB
 **********************************************************************************************************************************


 PROGRAM * CCSD (Closed-shell coupled cluster)     Authors: C. Hampel, H.-J. Werner, 1991, M. Deegan, P.J. Knowles, 1992


 Convergence thresholds:  THRVAR = 1.00D-08  THRDEN = 1.00D-06

 Number of core orbitals:          10 (   5   5 )
 Number of closed-shell orbitals:   7 (   4   3 )
 Number of external orbitals:      79 (  39  40 )

 Molecular orbitals read from record     2100.2  Type=RHF/CANONICAL  

 Number of N-1 electron functions:               7
 Number of N-2 electron functions:              28
 Number of singly external CSFs:               276
 Number of doubly external CSFs:             76729
 Total number of CSFs:                       77006

 Length of J-op  integral file:               0.00 MB
 Length of K-op  integral file:               0.38 MB
 Length of 3-ext integral record:             0.00 MB

 Integral transformation finished. Total CPU:   0.17 sec, npass=  1  Memory used:   1.51 MW

 Reference energy:                   -796.26086252

 MP2 singlet pair energy:              -0.23465964
 MP2 triplet pair energy:              -0.12178161
 MP2 correlation energy:               -0.35644124
 MP2 total energy:                   -796.61730377

 SCS-MP2 correlation energy:           -0.35736679   (PS=  1.200000  PT=  0.333333)
 SCS-MP2 total energy:               -796.61822931

 ITER.      SQ.NORM     CORR.ENERGY   TOTAL ENERGY   ENERGY CHANGE        DEN1      VAR(S)    VAR(P)  DIIS     TIME  TIME/IT
   1      1.16849537    -0.39026437  -796.65112689    -0.03382312    -0.02284897  0.12D-02  0.26D-02  1  1     2.58     0.18
   2      1.18298340    -0.39275973  -796.65362225    -0.00249536    -0.01150161  0.25D-04  0.23D-03  2  2     2.74     0.18
   3      1.18629930    -0.39270681  -796.65356933     0.00005292    -0.00154506  0.13D-04  0.17D-04  3  3     2.89     0.18
   4      1.18749834    -0.39272229  -796.65358481    -0.00001548    -0.00031956  0.15D-05  0.13D-05  4  4     3.05     0.18
   5      1.18776657    -0.39272502  -796.65358754    -0.00000274    -0.00005219  0.31D-06  0.16D-06  5  5     3.21     0.18
   6      1.18783787    -0.39272012  -796.65358264     0.00000490    -0.00001071  0.66D-07  0.21D-07  6  6     3.37     0.18
   7      1.18785509    -0.39271980  -796.65358232     0.00000032     0.00000032  0.10D-07  0.38D-08  6  2     3.52     0.18
   8      1.18786186    -0.39271967  -796.65358219     0.00000013    -0.00000089  0.18D-08  0.46D-09  6  1     3.68     0.18

 Norm of t1 vector:      0.05629255      S-energy:    -0.00000014      T1 diagnostic:  0.01063829
                                                                       D1 diagnostic:  0.02282557
                                                                       D2 diagnostic:  0.16986188 (internal)


 RESULTS
 =======

  Reference energy                   -796.260862522487
  CCSD singlet pair energy             -0.276206644570
  CCSD triplet pair energy             -0.116512889774
  CCSD correlation energy              -0.392719670254

 !CCSD total energy                  -796.653582192741

 Timing summary (sec):

 STEP                 CPU(USER)    SYS     CPU(TOT)    WALL
 Transformation          0.17      0.03      0.20      0.23
 CCSD iterations         3.52      0.12      3.64      1.47

 Program statistics:

 Available memory in ccsd:               805306163
 Min. memory needed in ccsd:                264770
 Max. memory used in ccsd:                  320166
 Max. memory used in cckext:                428693 ( 8 integral passes)



 **********************************************************************************************************************************
 DATASETS  * FILE   NREC   LENGTH (MB)   RECORD NAMES
              1      20       57.60       500      610      700      900      950      970     1000      129      960     1100   
                                          VAR    BASINP    GEOM    SYMINP    ZMAT    AOBASIS   BASIS     P2S    ABASIS      S 
                                         1400     1410     1200     1210     1080     1600     1650     1300     1700     1380   
                                           T        V       H0       H01     AOSYM     SMH    MOLCAS    ERIS     OPER     JKOP   

              2       4        0.51       700     1000      520     2100   
                                         GEOM     BASIS   MCVARS     RHF  

 PROGRAMS   *        TOTAL      CCSD    HF-SCF       INT
 CPU TIMES  *         3.49      1.48      0.39      1.48
 REAL TIME  *         5.18 SEC
 DISK USED  *       115.09 MB
 **********************************************************************************************************************************

 Dump information in style XML to xml output                                                                      

 Orbitals will not be exported.

 **********************************************************************************************************************************

 CCSD/cc-pVTZ energy=   -796.653582192741

            CCSD          HF-SCF
   -796.65358219   -796.26086252
 **********************************************************************************************************************************
 Molpro calculation terminated
