
 Working directory              : /home/jovyan/scratch/molpro.VaXYiNiNkV/
 Global scratch directory       : /home/jovyan/scratch/molpro.VaXYiNiNkV/
 Wavefunction directory         : /home/jovyan/wfu/
 Main file repository           : /home/jovyan/scratch/molpro.VaXYiNiNkV/

 id        : cardiff

 Nodes                nprocs
 jupyter-c-2efrancisan    1
 GA implementation: MPI file
 GA implementation (serial work in mppx): MPI file

 Using customized tuning parameters: mindgm=1; mindgv=20; mindgc=4; mindgr=1; noblas=0; minvec=7
 default implementation of scratch files=df  


 Variables initialized (1031), CPU time= 0.01 sec
 
 
 
 geometry={
 10
  B     0.0000000    0.0000000   -3.0934966
  H     0.5950210    1.0306066   -3.1108480
  H     0.5950210   -1.0306066   -3.1108480
  H    -1.1900420    0.0000000   -3.1108480
  P     0.0000000    0.0000000    2.8489335
  H     0.5938246    1.0285344    3.6029291
  H     0.5938246   -1.0285344    3.6029291
  H    -1.1876492    0.0000000    3.6029291
  H     0.0000000    0.0000000   -0.9896633
  H     0.0000000    0.0000000   -0.2420169
 }
 basis=cc-pVTZ
 angstrom
 
 
 hf; papt;mp4
 
 
 
 {put,xml;noorbitals,nobasis}
 Commands initialized (841), CPU time= 0.01 sec, 704 directives.
 Default parameters read. Elapsed time= 0.08 sec

 Checking input...
 Passed
1


                                         ***  PROGRAM SYSTEM MOLPRO  ***
                                       Copyright, TTI GmbH Stuttgart, 2015
                                    Version 2023.1 linked Mon Jun  5 13:27:10 2023


 **********************************************************************************************************************************
 LABEL *                                                                                                                                                                 
  (16 PROC) 64 bit serial version                                                        DATE: 02-Aug-23          TIME: 15:44:45  
 **********************************************************************************************************************************

 SHA1:             9738a14712571edd23541b6d7c4f3a3d766f8287
 **********************************************************************************************************************************

 Memory per process:       805 MW
 Total memory per node:   1074 MW
 Total GA space:           268 MW

 GA preallocation disabled
 GA check enabled

 Geometry recognized as XYZ


 Variable memory set to 805.3 MW

 SETTING BASIS          =    CC-PVTZ


 Recomputing integrals since basis changed


 Using spherical harmonics

 Library entry B      S cc-pVTZ              selected for orbital group  1
 Library entry B      P cc-pVTZ              selected for orbital group  1
 Library entry B      D cc-pVTZ              selected for orbital group  1
 Library entry B      F cc-pVTZ              selected for orbital group  1
 Library entry H      S cc-pVTZ              selected for orbital group  2
 Library entry H      P cc-pVTZ              selected for orbital group  2
 Library entry H      D cc-pVTZ              selected for orbital group  2
 Library entry P      S cc-pVTZ              selected for orbital group  3
 Library entry P      P cc-pVTZ              selected for orbital group  3
 Library entry P      D cc-pVTZ              selected for orbital group  3
 Library entry P      F cc-pVTZ              selected for orbital group  3


 PROGRAM * SEWARD (Integral evaluation for generally contracted gaussian basis sets)     Author: Roland Lindh, 1990

 Geometry written to block  1 of record 700


 Point group  Cs  



 ATOMIC COORDINATES

 NR  ATOM    CHARGE       X              Y              Z

   1  B       5.00    0.000000000    0.000000000   -5.845861341
   2  H       1.00    1.124426728    1.947564216   -5.878650735
   3  H       1.00    1.124426728   -1.947564216   -5.878650735
   4  H       1.00   -2.248853457    0.000000000   -5.878650735
   5  P      15.00    0.000000000    0.000000000    5.383704062
   6  H       1.00    1.122165860    1.943648326    6.808549245
   7  H       1.00    1.122165860   -1.943648326    6.808549245
   8  H       1.00   -2.244331720    0.000000000    6.808549245
   9  H       1.00    0.000000000    0.000000000   -1.870192593
  10  H       1.00    0.000000000    0.000000000   -0.457345659

 Bond lengths in Bohr (Angstrom)

 1-2  2.249092481  1-3  2.249092481  1-4  2.249092487  5-6  2.658422244  5-7  2.658422244
     ( 1.190168486)     ( 1.190168486)     ( 1.190168489)     ( 1.406776469)     ( 1.406776469)

  5- 8  2.658422214   9-10  1.412846934
       ( 1.406776452)       ( 0.747646400)

 Bond angles

  2-1-3  119.97890921   2-1-4  119.97890947   3-1-4  119.97890947   6-5-7   93.96217127

  6-5-8   93.96217000   7-5-8   93.96217000

 NUCLEAR CHARGE:                   28
 NUMBER OF PRIMITIVE AOS:         247
 NUMBER OF SYMMETRY AOS:          229
 NUMBER OF CONTRACTIONS:          176   (  111A'  +   65A"  )
 NUMBER OF INNER CORE ORBITALS:     1   (    1A'  +    0A"  )
 NUMBER OF OUTER CORE ORBITALS:     5   (    4A'  +    1A"  )
 NUMBER OF VALENCE ORBITALS:       16   (   12A'  +    4A"  )


 NUCLEAR REPULSION ENERGY   47.01365845


 Eigenvalues of metric

         1 0.874E-03 0.907E-03 0.148E-02 0.164E-02 0.242E-02 0.259E-02 0.385E-02 0.619E-02
         2 0.164E-02 0.242E-02 0.140E-01 0.155E-01 0.176E-01 0.296E-01 0.308E-01 0.519E-01


 Contracted 2-electron integrals neglected if value below      1.0D-11
 AO integral compression algorithm  1   Integral accuracy      1.0D-11

     116.916 MB (compressed) written to integral file ( 27.4%)


 NUMBER OF SORTED TWO-ELECTRON INTEGRALS:   61623981.     BUFFER LENGTH:  32768
 NUMBER OF SEGMENTS:   4  SEGMENT LENGTH:   15999984      RECORD LENGTH: 524288

 Memory used in sort:      16.56 MW

 SORT1 READ    53226335. AND WROTE    28645640. INTEGRALS IN     84 RECORDS. CPU TIME:     0.71 SEC, REAL TIME:     1.35 SEC
 SORT2 READ    28645640. AND WROTE    61623981. INTEGRALS IN    446 RECORDS. CPU TIME:     1.11 SEC, REAL TIME:     1.33 SEC

 FILE SIZES:   FILE 1:   147.9 MBYTE,  FILE 4:   352.4 MBYTE,   TOTAL:    500.3 MBYTE

 OPERATOR DM      FOR CENTER  0  COORDINATES:    0.000000    0.000000    0.000000


 **********************************************************************************************************************************
 DATASETS  * FILE   NREC   LENGTH (MB)   RECORD NAMES
              1      19      134.72       500      610      700      900      950      970     1000      129      960     1100   
                                          VAR    BASINP    GEOM    SYMINP    ZMAT    AOBASIS   BASIS     P2S    ABASIS      S 
                                         1400     1410     1200     1210     1080     1600     1650     1300     1700   
                                           T        V       H0       H01     AOSYM     SMH    MOLCAS    ERIS     OPER   

 PROGRAMS   *        TOTAL       INT
 CPU TIMES  *         6.83      6.70
 REAL TIME  *        10.62 SEC
 DISK USED  *       477.63 MB
 **********************************************************************************************************************************


 Program * Restricted Hartree-Fock

 Orbital guess generated from atomic densities. Full valence occupancy:   17   5

 Initial occupancy:  11   3

 NELEC=   28   SYM=1   MS2= 0   THRE=1.0D-08   THRD=3.2D-06   THRG=3.2D-06  HFMA2=F  DIIS_START=2   DIIS_MAX=10   DIIS_INCORE=F

 Level shifts:    0.00 (CLOSED)    0.00 (OPEN)    0.30 (GAP_MIN)

 ITER           ETOT              DE          GRAD        DDIFF     DIIS  NEXP   TIME(IT)  TIME(TOT)  DIAG
   1     -369.98631371    -369.98631371     0.00D+00     0.79D-01     0     0       0.47      0.93    start
   2     -370.01266001      -0.02634630     0.30D-02     0.48D-02     1     0       0.50      1.43    diag
   3     -370.01541092      -0.00275090     0.88D-03     0.12D-02     2     0       0.48      1.91    diag
   4     -370.01562151      -0.00021059     0.23D-03     0.34D-03     3     0       0.49      2.40    diag
   5     -370.01563396      -0.00001245     0.54D-04     0.13D-03     4     0       0.47      2.87    diag
   6     -370.01563438      -0.00000042     0.10D-04     0.27D-04     5     0       0.47      3.34    diag
   7     -370.01563440      -0.00000003     0.26D-05     0.88D-05     6     0       0.47      3.81    diag
   8     -370.01563440      -0.00000000     0.30D-06     0.11D-05     7     0       0.47      4.28    fixocc
   9     -370.01563440      -0.00000000     0.52D-07     0.11D-06     0     0       0.47      4.75    diag

 Final occupancy:  11   3

 !RHF STATE 1.1 Energy               -370.015634402108
  RHF One-electron energy            -602.479676672644
  RHF Two-electron energy             185.450383818564
  RHF Kinetic energy                  370.014420995922
  RHF Nuclear energy                   47.013658451972
  RHF Virial quotient                  -1.000003279348

 !RHF STATE 1.1 Dipole moment          -0.00000000     0.00000000     0.48984948
 Dipole moment /Debye                  -0.00000001     0.00000000     1.24507319

 Orbital energies:

           1.1          2.1          3.1          4.1          5.1          6.1          7.1          8.1          9.1         10.1
    -79.945988    -7.605519    -7.490331    -5.383793    -5.382868    -0.862386    -0.708902    -0.591823    -0.528251    -0.492986

          11.1         12.1         13.1
     -0.391574     0.075377     0.136485

           1.2          2.2          3.2          4.2          5.2
     -5.383793    -0.528251    -0.492986     0.150158     0.211739


 HOMO     11.1    -0.391574 =     -10.6553eV
 LUMO     12.1     0.075377 =       2.0511eV
 LUMO-HOMO         0.466952 =      12.7064eV

 Orbitals saved in record  2100.2


 **********************************************************************************************************************************
 DATASETS  * FILE   NREC   LENGTH (MB)   RECORD NAMES
              1      19      134.72       500      610      700      900      950      970     1000      129      960     1100   
                                          VAR    BASINP    GEOM    SYMINP    ZMAT    AOBASIS   BASIS     P2S    ABASIS      S 
                                         1400     1410     1200     1210     1080     1600     1650     1300     1700   
                                           T        V       H0       H01     AOSYM     SMH    MOLCAS    ERIS     OPER   

              2       4        0.81       700     1000      520     2100   
                                         GEOM     BASIS   MCVARS     RHF  

 PROGRAMS   *        TOTAL    HF-SCF       INT
 CPU TIMES  *        11.59      4.75      6.70
 REAL TIME  *        20.72 SEC
 DISK USED  *       477.63 MB
 **********************************************************************************************************************************


 PROGRAM * PAPT (Closed-shell)     Authors: C. Hampel, H.-J. Werner, 1991, P.J. Knowles, 2021


 Convergence thresholds:  THRVAR = 1.00D-08  THRDEN = 1.00D-06

 Number of core orbitals:           6 (   5   1 )
 Number of closed-shell orbitals:   8 (   6   2 )
 Number of external orbitals:     162 ( 100  62 )

 Molecular orbitals read from record     2100.2  Type=RHF/CANONICAL  

 Number of N-1 electron functions:               8
 Number of N-2 electron functions:              36
 Number of singly external CSFs:               724
 Number of doubly external CSFs:            426328
 Total number of CSFs:                      427053

 Length of J-op  integral file:               0.00 MB
 Length of K-op  integral file:               1.20 MB

 Integral transformation finished. Total CPU:   0.80 sec, npass=  1  Memory used:   0.78 MW

 Reference energy:                   -370.01563440

                        CORR.ENERGY   TOTAL ENERGY   ENERGY CHANGE
 MP2:                   -0.31967623  -370.33531063    -0.31967623

 SCS-MP2 correlation energy:           -0.34784941   (PS=  1.200000  PT=  0.333333)
 SCS-MP2 total energy:               -370.36348382
 Iteration:   1     0.2298D+00
 Iteration:   2     0.2410D+00
 Iteration:   3     0.2427D+00
 Iteration:   4     0.1481D+00
 Iteration:   5     0.1198D+02
 Iteration:   6     0.3910D+00
 Iteration:   7     0.1330D+01
 Iteration:   8     0.3070D+00
 Iteration:   9     0.2358D+00
 Iteration:  10     0.9235D+01
 Iteration:  11     0.3292D+00
 Iteration:  12     0.2901D+00
 Iteration:  13     0.7921D-01
 Iteration:  14     0.3935D-01
 Iteration:  15     0.5524D+00
 Iteration:  16     0.1745D-01
 Iteration:  17     0.6230D-02
 Iteration:  18     0.5453D-02
 Iteration:  19     0.9457D-02
 Iteration:  20     0.4913D-03
 Iteration:  21     0.8465D-04
 PAPT operator written to  7000.1
 PAPT orbitals and eigenvalues written to  7000.2

 MP3(D):                -0.36849530  -370.38412970    -0.04881907



 RESULTS
 =======

  Reference energy                   -370.015634402107
  MP3 singlet pair energy              -0.301502146587
  MP3 triplet pair energy              -0.066993148656
  MP3 correlation energy               -0.368495295243

 !MP3 total energy                   -370.384129697350

 Timing summary (sec):

 STEP                 CPU(USER)    SYS     CPU(TOT)    WALL
 Transformation          0.83      0.05      0.88      1.41
 CCSD iterations        14.74      0.11     14.85      4.04

 Program statistics:

 Available memory in ccsd:               805306101
 Min. memory needed in ccsd:               1305035
 Max. memory used in ccsd:                 1658679
 Max. memory used in cckext:               2086652 ( 1 integral passes)



 **********************************************************************************************************************************
 DATASETS  * FILE   NREC   LENGTH (MB)   RECORD NAMES
              1      21      141.59       500      610      700      900      950      970     1000      129      960     1100   
                                          VAR    BASINP    GEOM    SYMINP    ZMAT    AOBASIS   BASIS     P2S    ABASIS      S 
                                         1400     1410     1200     1210     1080     1600     1650     1300     1700     1380   
                                           T        V       H0       H01     AOSYM     SMH    MOLCAS    ERIS     OPER     JKOP   
                                         7000   
                                        PAPT AO    

              2       5        1.28       700     1000      520     2100     7000   
                                         GEOM     BASIS   MCVARS     RHF     PAPT   

 PROGRAMS   *        TOTAL      PAPT    HF-SCF       INT
 CPU TIMES  *        15.30      3.71      4.75      6.70
 REAL TIME  *        26.30 SEC
 DISK USED  *       477.63 MB
 **********************************************************************************************************************************


 PROGRAM * MP4 (Closed-shell)     Authors: C. Hampel, H.-J. Werner, 1991, M. Deegan, P.J. Knowles, 1992


 Convergence thresholds:  THRVAR = 1.00D-08  THRDEN = 1.00D-06

 MP4(T)     terms to be evaluated (factor= 0.000)


 Number of core orbitals:           6 (   5   1 )
 Number of closed-shell orbitals:   8 (   6   2 )
 Number of external orbitals:     162 ( 100  62 )

 Molecular orbitals read from record     7000.2  Type=PAPT/CANONICAL (state 1.1)

 Number of N-1 electron functions:               8
 Number of N-2 electron functions:              36
 Number of singly external CSFs:               724
 Number of doubly external CSFs:            426328
 Total number of CSFs:                      427053

 Length of J-op  integral file:               0.00 MB
 Length of K-op  integral file:               1.20 MB

 Memory could be reduced to 23.01 Mwords without degradation in triples

 Integral transformation finished. Total CPU:   1.87 sec, npass=  1  Memory used:   8.09 MW
 Orbital energies read from record       7000.2  Type=PAPT/CANONICAL (state 1.1)

 Reference energy:                   -370.01563440

                        CORR.ENERGY   TOTAL ENERGY   ENERGY CHANGE
 MP2:                   -0.38240496  -370.39803936    -0.38240496

 SCS-MP2 correlation energy:           -0.41674515   (PS=  1.200000  PT=  0.333333)
 SCS-MP2 total energy:               -370.43237955

 MP3(D):                -0.38295074  -370.39858514    -0.00054578
 MP4(DQ):               -0.37463601  -370.39027041     0.00831473
 MP4(SDQ):              -0.37676783  -370.39240223    -0.00213182

 Norm of t1 vector:      0.05091768      S-energy:    -0.00213182      T1 diagnostic:  0.00900106

 Largest off-diagonal element in interal  block of Fock matrix:  0.48D-01
 Largest off-diagonal element in external block of Fock matrix:  0.24D+00


 Total CPU time for triples:     18.01 sec


 RESULTS
 =======

  Reference energy                   -370.015634402107
  MP4(SDQ) singlet pair energy         -0.309860226516
  MP4(SDQ) triplet pair energy         -0.064775781657
  MP4(SDQ) correlation energy          -0.376767829103

  Triples contribution                 -0.012482774395
  Total correlation energy             -0.389250603498

  MP4(SDQ) total energy              -370.392402231210
 !MP4(SDTQ) total energy             -370.404885005605

 Timing summary (sec):

 STEP                 CPU(USER)    SYS     CPU(TOT)    WALL
 Transformation          2.36      0.20      2.56      3.78
 CCSD iterations        17.36      0.05     17.41      1.83
 Triples                18.01      0.75     18.76     19.01

 Program statistics:

 Available memory in ccsd:               805306101
 Min. memory needed in ccsd:               1305035
 Max. memory used in ccsd:                 1658679
 Max. memory used in cckext:               2086652 ( 1 integral passes)



 **********************************************************************************************************************************
 DATASETS  * FILE   NREC   LENGTH (MB)   RECORD NAMES
              1      22      207.33       500      610      700      900      950      970     1000      129      960     1100   
                                          VAR    BASINP    GEOM    SYMINP    ZMAT    AOBASIS   BASIS     P2S    ABASIS      S 
                                         1400     1410     1200     1210     1080     1600     1650     1300     1700     1380   
                                           T        V       H0       H01     AOSYM     SMH    MOLCAS    ERIS     OPER     JKOP   
                                         7000     1380(1)
                                        PAPT AO   JKOP   

              2       5        1.28       700     1000      520     2100     7000   
                                         GEOM     BASIS   MCVARS     RHF     PAPT   

 PROGRAMS   *        TOTAL       MP4      PAPT    HF-SCF       INT
 CPU TIMES  *        37.46     22.15      3.71      4.75      6.70
 REAL TIME  *        50.99 SEC
 DISK USED  *       477.63 MB
 **********************************************************************************************************************************

 Dump information in style XML to xml output                                                                      

 Orbitals will not be exported.

 **********************************************************************************************************************************

 MP4/cc-pVTZ energy=   -370.404885005605

             MP4            PAPT          HF-SCF
   -370.40488501   -370.38412970   -370.01563440
 **********************************************************************************************************************************
 Molpro calculation terminated
