
 Working directory              : /home/jovyan/scratch/molpro.ILa9CA4y33/
 Global scratch directory       : /home/jovyan/scratch/molpro.ILa9CA4y33/
 Wavefunction directory         : /home/jovyan/wfu/
 Main file repository           : /home/jovyan/scratch/molpro.ILa9CA4y33/

 id        : cardiff

 Nodes                nprocs
 jupyter-c-2efrancisan    1
 GA implementation: MPI file
 GA implementation (serial work in mppx): MPI file

 Using customized tuning parameters: mindgm=1; mindgv=20; mindgc=4; mindgr=1; noblas=0; minvec=7
 default implementation of scratch files=df  


 Variables initialized (1031), CPU time= 0.00 sec
 
 
 
 geometry={
 22
  C     0.0000000    0.0000000    0.7395831
  C     1.1315582   -0.3997245    1.4579412
  C     1.1319975   -0.4003733    2.8462384
  C     0.0000000    0.0000000    3.5470967
  C    -1.1319975    0.4003733    2.8462384
  C    -1.1315582    0.3997245    1.4579412
  C     0.0000000    0.0000000   -0.7395831
  C     1.1315582    0.3997245   -1.4579412
  C     1.1319975    0.4003733   -2.8462384
  C     0.0000000    0.0000000   -3.5470967
  C    -1.1319975   -0.4003733   -2.8462384
  C    -1.1315582   -0.3997245   -1.4579412
  H     2.0096598   -0.7362253    0.9219214
  H     2.0161092   -0.7223128    3.3820552
  H     0.0000000    0.0000000    4.6295229
  H    -2.0161092    0.7223128    3.3820552
  H    -2.0096598    0.7362253    0.9219214
  H     2.0096598    0.7362253   -0.9219214
  H     2.0161092    0.7223128   -3.3820552
  H     0.0000000    0.0000000   -4.6295229
  H    -2.0161092   -0.7223128   -3.3820552
  H    -2.0096598   -0.7362253   -0.9219214
 }
 basis=cc-pVTZ
 angstrom
 
 
 hf; papt;mp2
 
 
 
 {put,xml;noorbitals,nobasis}
 Commands initialized (841), CPU time= 0.01 sec, 704 directives.
 Default parameters read. Elapsed time= 0.07 sec

 Checking input...
 Passed
1


                                         ***  PROGRAM SYSTEM MOLPRO  ***
                                       Copyright, TTI GmbH Stuttgart, 2015
                                    Version 2023.1 linked Mon Jun  5 13:27:10 2023


 **********************************************************************************************************************************
 LABEL *                                                                                                                                                                 
  (16 PROC) 64 bit serial version                                                        DATE: 03-Aug-23          TIME: 21:28:04  
 **********************************************************************************************************************************

 SHA1:             9738a14712571edd23541b6d7c4f3a3d766f8287
 **********************************************************************************************************************************

 Memory per process:       805 MW
 Total memory per node:   1074 MW
 Total GA space:           268 MW

 GA preallocation disabled
 GA check enabled

 Geometry recognized as XYZ


 Variable memory set to 805.3 MW

 SETTING BASIS          =    CC-PVTZ


 Recomputing integrals since basis changed


 Using spherical harmonics

 Library entry C      S cc-pVTZ              selected for orbital group  1
 Library entry C      P cc-pVTZ              selected for orbital group  1
 Library entry C      D cc-pVTZ              selected for orbital group  1
 Library entry C      F cc-pVTZ              selected for orbital group  1
 Library entry H      S cc-pVTZ              selected for orbital group  2
 Library entry H      P cc-pVTZ              selected for orbital group  2
 Library entry H      D cc-pVTZ              selected for orbital group  2


 PROGRAM * SEWARD (Integral evaluation for generally contracted gaussian basis sets)     Author: Roland Lindh, 1990

 Geometry written to block  1 of record 700


 Point group  D2  



 ATOMIC COORDINATES

 NR  ATOM    CHARGE       X              Y              Z

   1  C       6.00    0.000000000    0.000000000    1.397609505
   2  C       6.00    0.000000000    0.000000000   -1.397609505
   3  C       6.00    2.138335092   -0.755369830    2.755109574
   4  C       6.00   -2.138335092    0.755369830    2.755109574
   5  C       6.00    2.138335092    0.755369830   -2.755109574
   6  C       6.00   -2.138335092   -0.755369830   -2.755109574
   7  C       6.00    2.139165249   -0.756595885    5.378611061
   8  C       6.00   -2.139165249    0.756595885    5.378611061
   9  C       6.00    2.139165249    0.756595885   -5.378611061
  10  C       6.00   -2.139165249   -0.756595885   -5.378611061
  11  C       6.00    0.000000000    0.000000000    6.703041301
  12  C       6.00    0.000000000    0.000000000   -6.703041301
  13  H       1.00    3.797706626   -1.391264183    1.742178954
  14  H       1.00   -3.797706626    1.391264183    1.742178954
  15  H       1.00    3.797706626    1.391264183   -1.742178954
  16  H       1.00   -3.797706626   -1.391264183   -1.742178954
  17  H       1.00    3.809894225   -1.364973368    6.391158066
  18  H       1.00   -3.809894225    1.364973368    6.391158066
  19  H       1.00    3.809894225    1.364973368   -6.391158066
  20  H       1.00   -3.809894225   -1.364973368   -6.391158066
  21  H       1.00    0.000000000    0.000000000    8.748530369
  22  H       1.00    0.000000000    0.000000000   -8.748530369

 Bond lengths in Bohr (Angstrom)

 1-2  2.795219011  1-3  2.643079072  1-4  2.643079072  2-5  2.643079072  2-6  2.643079072
     ( 1.479166200)     ( 1.398657212)     ( 1.398657212)     ( 1.398657212)     ( 1.398657212)

  3- 7  2.623501905   3-13  2.045459350   4- 8  2.623501905   4-14  2.045459350   5- 9  2.623501905
       ( 1.388297421)       ( 1.082410474)       ( 1.388297421)       ( 1.082410474)       ( 1.388297421)

  5-15  2.045459350   6-10  2.623501905   6-16  2.045459350   7-11  2.627276299   7-17  2.046145135
       ( 1.082410474)       ( 1.388297421)       ( 1.082410474)       ( 1.390294744)       ( 1.082773376)

  8-11  2.627276299   8-18  2.046145135   9-12  2.627276299   9-19  2.046145135  10-12  2.627276299
       ( 1.390294744)       ( 1.082773376)       ( 1.390294744)       ( 1.082773376)       ( 1.390294744)

 10-20  2.046145135  11-21  2.045489068  12-22  2.045489068
       ( 1.082773376)       ( 1.082426200)       ( 1.082426200)

 Bond angles

  1- 2- 5  120.90429317   1- 2- 6  120.90429317   1- 3- 7  120.93030479   1- 3-13  119.39508733

  1- 4- 8  120.93030479   1- 4-14  119.39508733   2- 1- 3  120.90429317   2- 1- 4  120.90429317

  2- 5- 9  120.93030479   2- 5-15  119.39508733   2- 6-10  120.93030479   2- 6-16  119.39508733

  3- 1- 4  118.19141366   3- 7-11  120.24611520   3- 7-17  119.68644493   4- 8-11  120.24611520

  4- 8-18  119.68644493   5- 2- 6  118.19141366   5- 9-12  120.24611520   5- 9-19  119.68644493

  6-10-12  120.24611520   6-10-20  119.68644493   7- 3-13  119.65704389   7-11- 8  119.45572385

  7-11-21  120.27213807   8- 4-14  119.65704389   8-11-21  120.27213807   9- 5-15  119.65704389

  9-12-10  119.45572385   9-12-22  120.27213807  10- 6-16  119.65704389  10-12-22  120.27213807

 11- 7-17  120.06548326  11- 8-18  120.06548326  12- 9-19  120.06548326  12-10-20  120.06548326

 NUCLEAR CHARGE:                   82
 NUMBER OF PRIMITIVE AOS:         734
 NUMBER OF SYMMETRY AOS:          664
 NUMBER OF CONTRACTIONS:          500   (  128A   +  122B3  +  122B2  +  128B1  )
 NUMBER OF INNER CORE ORBITALS:     0   (    0A   +    0B3  +    0B2  +    0B1  )
 NUMBER OF OUTER CORE ORBITALS:    12   (    4A   +    2B3  +    2B2  +    4B1  )
 NUMBER OF VALENCE ORBITALS:       58   (   15A   +   14B3  +   14B2  +   15B1  )


 NUCLEAR REPULSION ENERGY  601.35158889


 Eigenvalues of metric

         1 0.327E-04 0.300E-03 0.501E-03 0.589E-03 0.106E-02 0.125E-02 0.145E-02 0.157E-02
         2 0.185E-03 0.293E-03 0.562E-03 0.917E-03 0.976E-03 0.126E-02 0.147E-02 0.170E-02
         3 0.123E-03 0.293E-03 0.565E-03 0.939E-03 0.971E-03 0.124E-02 0.136E-02 0.164E-02
         4 0.329E-04 0.108E-03 0.377E-03 0.428E-03 0.640E-03 0.107E-02 0.125E-02 0.136E-02


 Contracted 2-electron integrals neglected if value below      1.0D-12
 AO integral compression algorithm  1   Integral accuracy      1.0D-12

     9532.080 MB (compressed) written to integral file ( 52.7%)


 NUMBER OF SORTED TWO-ELECTRON INTEGRALS: 1972757523.     BUFFER LENGTH:  32768
 NUMBER OF SEGMENTS:  62  SEGMENT LENGTH:   31999929      RECORD LENGTH: 262144

 Memory used in sort:      32.29 MW

 SORT1 READ  2262202288. AND WROTE  1919770769. INTEGRALS IN  11021 RECORDS. CPU TIME:    85.98 SEC, REAL TIME:   110.10 SEC
 SORT2 READ  1919770769. AND WROTE  1972757523. INTEGRALS IN  36362 RECORDS. CPU TIME:    44.48 SEC, REAL TIME:    58.30 SEC

 FILE SIZES:   FILE 1:  9567.6 MBYTE,  FILE 4: 23112.8 MBYTE,   TOTAL:  32680.3 MBYTE

 OPERATOR DM      FOR CENTER  0  COORDINATES:    0.000000    0.000000    0.000000


 **********************************************************************************************************************************
 DATASETS  * FILE   NREC   LENGTH (MB)   RECORD NAMES
              1      19     8325.76       500      610      700      900      950      970     1000      129      960     1100   
                                          VAR    BASINP    GEOM    SYMINP    ZMAT    AOBASIS   BASIS     P2S    ABASIS      S 
                                         1400     1410     1200     1210     1080     1600     1650     1300     1700   
                                           T        V       H0       H01     AOSYM     SMH    MOLCAS    ERIS     OPER   

 PROGRAMS   *        TOTAL       INT
 CPU TIMES  *       471.14    471.00
 REAL TIME  *       528.20 SEC
 DISK USED  *        30.44 GB
 **********************************************************************************************************************************


 Program * Restricted Hartree-Fock

 Orbital guess generated from atomic densities. Full valence occupancy:   19  16  16  19

 Initial occupancy:  12   9   9  11

 NELEC=   82   SYM=1   MS2= 0   THRE=1.0D-08   THRD=3.2D-06   THRG=3.2D-06  HFMA2=F  DIIS_START=2   DIIS_MAX=10   DIIS_INCORE=F

 Level shifts:    0.00 (CLOSED)    0.00 (OPEN)    0.30 (GAP_MIN)

 ITER           ETOT              DE          GRAD        DDIFF     DIIS  NEXP   TIME(IT)  TIME(TOT)  DIAG
   1     -460.28665633    -460.28665633     0.00D+00     0.69D-01     0     0       8.39     16.37    start
   2     -460.38707742      -0.10042109     0.39D-02     0.59D-02     1     0       8.35     24.72    diag
   3     -460.39794494      -0.01086753     0.14D-02     0.18D-02     2     0       8.41     33.13    diag
   4     -460.39961126      -0.00166632     0.50D-03     0.79D-03     3     0       8.32     41.45    diag
   5     -460.39963604      -0.00002478     0.70D-04     0.14D-03     4     0       8.30     49.75    diag
   6     -460.39964673      -0.00001069     0.43D-04     0.54D-04     5     0       8.38     58.13    diag
   7     -460.39964695      -0.00000022     0.40D-05     0.15D-04     6     0       8.38     66.51    diag
   8     -460.39964698      -0.00000003     0.12D-05     0.33D-05     7     0       8.32     74.83    fixocc
   9     -460.39964698      -0.00000001     0.45D-06     0.14D-05     8     0       8.45     83.28    diag
  10     -460.39964698      -0.00000000     0.19D-06     0.33D-06     0     0       8.57     91.85    diag/orth

 Final occupancy:  12   9   9  11

 !RHF STATE 1.1 Energy               -460.399646980879
  RHF One-electron energy           -1814.466034726096
  RHF Two-electron energy             752.714798851535
  RHF Kinetic energy                  459.863093892393
  RHF Nuclear energy                  601.351588893682
  RHF Virial quotient                  -1.001166767013

 !RHF STATE 1.1 Dipole moment           0.00000000     0.00000000     0.00000000
 Dipole moment /Debye                   0.00000000     0.00000000     0.00000000

 Orbital energies:

           1.1          2.1          3.1          4.1          5.1          6.1          7.1          8.1          9.1         10.1
    -11.244370   -11.234231   -11.232156   -11.231588    -1.170847    -1.054356    -0.852352    -0.719932    -0.654175    -0.585404

          11.1         12.1         13.1         14.1
     -0.484585    -0.338270     0.128947     0.144841

           1.2          2.2          3.2          4.2          5.2          6.2          7.2          8.2          9.2         10.2
    -11.233929   -11.231982    -1.020327    -0.842853    -0.640593    -0.591356    -0.503428    -0.491930    -0.300826     0.158924

          11.2
      0.168778

           1.3          2.3          3.3          4.3          5.3          6.3          7.3          8.3          9.3         10.3
    -11.233930   -11.231988    -1.011520    -0.810105    -0.607188    -0.581804    -0.518080    -0.481884    -0.369180     0.095955

          11.3
      0.178703

           1.4          2.4          3.4          4.4          5.4          6.4          7.4          8.4          9.4         10.4
    -11.243615   -11.234231   -11.232156   -11.231588    -1.142488    -0.982981    -0.790404    -0.681702    -0.615201    -0.520465

          11.4         12.4         13.4
     -0.338227     0.121846     0.151875


 HOMO      9.2    -0.300826 =      -8.1859eV
 LUMO     10.3     0.095955 =       2.6111eV
 LUMO-HOMO         0.396781 =      10.7970eV

 Orbitals saved in record  2100.2


 **********************************************************************************************************************************
 DATASETS  * FILE   NREC   LENGTH (MB)   RECORD NAMES
              1      19     8325.76       500      610      700      900      950      970     1000      129      960     1100   
                                          VAR    BASINP    GEOM    SYMINP    ZMAT    AOBASIS   BASIS     P2S    ABASIS      S 
                                         1400     1410     1200     1210     1080     1600     1650     1300     1700   
                                           T        V       H0       H01     AOSYM     SMH    MOLCAS    ERIS     OPER   

              2       4        1.79       700     1000      520     2100   
                                         GEOM     BASIS   MCVARS     RHF  

 PROGRAMS   *        TOTAL    HF-SCF       INT
 CPU TIMES  *       563.01     91.87    471.00
 REAL TIME  *       633.12 SEC
 DISK USED  *        30.44 GB
 **********************************************************************************************************************************


 PROGRAM * PAPT (Closed-shell)     Authors: C. Hampel, H.-J. Werner, 1991, P.J. Knowles, 2021


 Convergence thresholds:  THRVAR = 1.00D-08  THRDEN = 1.00D-06

 Number of core orbitals:          12 (   4   2   2   4 )
 Number of closed-shell orbitals:  29 (   8   7   7   7 )
 Number of external orbitals:     459 ( 116 113 113 117 )

 Molecular orbitals read from record     2100.2  Type=RHF/CANONICAL  

 Number of N-1 electron functions:              29
 Number of N-2 electron functions:             435
 Number of singly external CSFs:              3329
 Number of doubly external CSFs:          22154502
 Total number of CSFs:                    22157832

 Length of J-op  integral file:               0.00 MB
 Length of K-op  integral file:               4.36 MB

 Integral transformation finished. Total CPU:  37.15 sec, npass=  1  Memory used:  27.84 MW

 Reference energy:                   -460.39964698

                        CORR.ENERGY   TOTAL ENERGY   ENERGY CHANGE
 MP2:                   -1.88862687  -462.28827385    -1.88862687

 SCS-MP2 correlation energy:           -1.84629304   (PS=  1.200000  PT=  0.333333)
 SCS-MP2 total energy:               -462.24594002
 Iteration:   1     0.3031D+00
 Iteration:   2     0.5590D+00
 Iteration:   3     0.9787D-01
 Iteration:   4     0.1586D+00
 Iteration:   5     0.3895D-01
 Iteration:   6     0.2480D-01
 Iteration:   7     0.4395D-01
 Iteration:   8     0.4392D-02
 Iteration:   9     0.8176D-02
 Iteration:  10     0.1437D-02
 Iteration:  11     0.1250D-02
 Iteration:  12     0.9143D-03
 Iteration:  13     0.3925D-03
 Iteration:  14     0.1575D-02
 Iteration:  15     0.1143D-03
 Iteration:  16     0.1742D-03
 Iteration:  17     0.4061D-04
 PAPT operator written to  7000.1
 PAPT orbitals and eigenvalues written to  7000.2

 MP3(D):                -1.92390828  -462.32355526    -0.03528142



 RESULTS
 =======

  Reference energy                   -460.399646980878
  MP3 singlet pair energy              -1.257008330377
  MP3 triplet pair energy              -0.666899953388
  MP3 correlation energy               -1.923908283764

 !MP3 total energy                   -462.323555264642

 Timing summary (sec):

 STEP                 CPU(USER)    SYS     CPU(TOT)    WALL
 Transformation         38.27      3.23     41.50     45.66
 CCSD iterations       730.81      3.91    734.72    175.94

 Program statistics:

 Available memory in ccsd:               805302992
 Min. memory needed in ccsd:              49902938
 Max. memory used in ccsd:                71005481
 Max. memory used in cckext:              58603029 ( 1 integral passes)



 **********************************************************************************************************************************
 DATASETS  * FILE   NREC   LENGTH (MB)   RECORD NAMES
              1      21     8638.34       500      610      700      900      950      970     1000      129      960     1100   
                                          VAR    BASINP    GEOM    SYMINP    ZMAT    AOBASIS   BASIS     P2S    ABASIS      S 
                                         1400     1410     1200     1210     1080     1600     1650     1300     1700     1380   
                                           T        V       H0       H01     AOSYM     SMH    MOLCAS    ERIS     OPER     JKOP   
                                         7000   
                                        PAPT AO    

              2       5        3.33       700     1000      520     2100     7000   
                                         GEOM     BASIS   MCVARS     RHF     PAPT   

 PROGRAMS   *        TOTAL      PAPT    HF-SCF       INT
 CPU TIMES  *       768.86    205.85     91.87    471.00
 REAL TIME  *       854.77 SEC
 DISK USED  *        30.44 GB
 **********************************************************************************************************************************


 PROGRAM * MP2 (Closed-shell)     Authors: C. Hampel, H.-J. Werner, 1991, M. Deegan, P.J. Knowles, 1992


 Convergence thresholds:  THRVAR = 1.00D-08  THRDEN = 1.00D-06

 Number of core orbitals:          12 (   4   2   2   4 )
 Number of closed-shell orbitals:  29 (   8   7   7   7 )
 Number of external orbitals:     459 ( 116 113 113 117 )

 Molecular orbitals read from record     7000.2  Type=PAPT/CANONICAL (state 1.1)

 Number of N-1 electron functions:              29
 Number of N-2 electron functions:             435
 Number of singly external CSFs:              3329
 Number of doubly external CSFs:          22154502
 Total number of CSFs:                    22157832

 Length of J-op  integral file:               0.00 MB
 Length of K-op  integral file:               4.36 MB

 Integral transformation finished. Total CPU:  37.13 sec, npass=  1  Memory used:  27.84 MW
 Orbital energies read from record       7000.2  Type=PAPT/CANONICAL (state 1.1)

 Memory needed for MP2:                      0.31 MW

 SCS-MP2 correlation energy:           -1.908191021424   (PS=  1.200000  PT=  0.333333)
 SCS-MP2 total energy:               -462.307838002302


  Reference energy                   -460.399646980878
  MP2 singlet pair energy              -1.212733714117
  MP2 triplet pair energy              -0.727891978634
  MP2 correlation energy               -1.940625692752

 !MP2 total energy                   -462.340272673629


 **********************************************************************************************************************************
 DATASETS  * FILE   NREC   LENGTH (MB)   RECORD NAMES
              1      21     8638.34       500      610      700      900      950      970     1000      129      960     1100   
                                          VAR    BASINP    GEOM    SYMINP    ZMAT    AOBASIS   BASIS     P2S    ABASIS      S 
                                         1400     1410     1200     1210     1080     1600     1650     1300     1700     1380   
                                           T        V       H0       H01     AOSYM     SMH    MOLCAS    ERIS     OPER     JKOP   
                                         7000   
                                        PAPT AO    

              2       5        3.33       700     1000      520     2100     7000   
                                         GEOM     BASIS   MCVARS     RHF     PAPT   

 PROGRAMS   *        TOTAL       MP2      PAPT    HF-SCF       INT
 CPU TIMES  *       815.96     47.10    205.85     91.87    471.00
 REAL TIME  *       907.32 SEC
 DISK USED  *        30.44 GB
 **********************************************************************************************************************************

 Dump information in style XML to xml output                                                                      

 Orbitals will not be exported.

 **********************************************************************************************************************************

 MP2/cc-pVTZ energy=   -462.340272673629

             MP2            PAPT          HF-SCF
   -462.34027267   -462.32355526   -460.39964698
 **********************************************************************************************************************************
 Molpro calculation terminated
