
 Working directory              : /home/jovyan/scratch/molpro.WbdU2eyV6o/
 Global scratch directory       : /home/jovyan/scratch/molpro.WbdU2eyV6o/
 Wavefunction directory         : /home/jovyan/wfu/
 Main file repository           : /home/jovyan/scratch/molpro.WbdU2eyV6o/

 id        : cardiff

 Nodes                nprocs
 jupyter-c-2efrancisan    1
 GA implementation: MPI file
 GA implementation (serial work in mppx): MPI file

 Using customized tuning parameters: mindgm=1; mindgv=20; mindgc=4; mindgr=1; noblas=0; minvec=7
 default implementation of scratch files=df  


 Variables initialized (1031), CPU time= 0.00 sec
 
 
 
 geometry={
 7
  C -0.122877 0.390310 -0.000787
  H -0.118122 1.483913 -0.004726
  N -1.171301 -0.329866 0.010781
  H -2.008655 0.241760 0.002981
  H 1.213885 -1.140955 0.095493
  N 1.132820 -0.147882 -0.053220
  H 1.919523 0.417657 0.208046
 }
 basis=cc-pVTZ
 angstrom
 
 
 hf; mp3
 
 
 
 {put,xml;noorbitals,nobasis}
 Commands initialized (841), CPU time= 0.01 sec, 704 directives.
 Default parameters read. Elapsed time= 0.08 sec

 Checking input...
 Passed
1


                                         ***  PROGRAM SYSTEM MOLPRO  ***
                                       Copyright, TTI GmbH Stuttgart, 2015
                                    Version 2023.1 linked Mon Jun  5 13:27:10 2023


 **********************************************************************************************************************************
 LABEL *                                                                                                                                                                 
  (16 PROC) 64 bit serial version                                                        DATE: 02-Aug-23          TIME: 15:36:22  
 **********************************************************************************************************************************

 SHA1:             9738a14712571edd23541b6d7c4f3a3d766f8287
 **********************************************************************************************************************************

 Memory per process:       805 MW
 Total memory per node:   1074 MW
 Total GA space:           268 MW

 GA preallocation disabled
 GA check enabled

 Geometry recognized as XYZ


 Variable memory set to 805.3 MW

 SETTING BASIS          =    CC-PVTZ


 Recomputing integrals since basis changed


 Using spherical harmonics

 Library entry C      S cc-pVTZ              selected for orbital group  1
 Library entry C      P cc-pVTZ              selected for orbital group  1
 Library entry C      D cc-pVTZ              selected for orbital group  1
 Library entry C      F cc-pVTZ              selected for orbital group  1
 Library entry H      S cc-pVTZ              selected for orbital group  2
 Library entry H      P cc-pVTZ              selected for orbital group  2
 Library entry H      D cc-pVTZ              selected for orbital group  2
 Library entry N      S cc-pVTZ              selected for orbital group  3
 Library entry N      P cc-pVTZ              selected for orbital group  3
 Library entry N      D cc-pVTZ              selected for orbital group  3
 Library entry N      F cc-pVTZ              selected for orbital group  3


 PROGRAM * SEWARD (Integral evaluation for generally contracted gaussian basis sets)     Author: Roland Lindh, 1990

 Geometry written to block  1 of record 700


 Point group  C1  



 ATOMIC COORDINATES

 NR  ATOM    CHARGE       X              Y              Z

   1  C       6.00   -0.232203877    0.737579004   -0.001487214
   2  H       1.00   -0.223218229    2.804189163   -0.008930846
   3  N       7.00   -2.213438100   -0.623356398    0.020373137
   4  H       1.00   -3.795807829    0.456860188    0.005633274
   5  H       1.00    2.293910197   -2.156092471    0.180455617
   6  N       7.00    2.140719548   -0.279456479   -0.100571224
   7  H       1.00    3.627372760    0.789257344    0.393149961

 Bond lengths in Bohr (Angstrom)

 1-2  2.066643099  1-3  2.403728788  1-6  2.583591376  3-4  1.915979931  5-6  1.903734778
     ( 1.093620431)     ( 1.271998496)     ( 1.367177678)     ( 1.013892916)     ( 1.007413060)

 6-7  1.896324765
     ( 1.003491850)

 Bond angles

  1-3-4  111.18875555   1-6-5  117.14822598   1-6-7  119.22264143   2-1-3  124.73518037

  2-1-6  112.92426348   3-1-6  122.30982676   5-6-7  117.00259559

 NUCLEAR CHARGE:                   24
 NUMBER OF PRIMITIVE AOS:         209
 NUMBER OF SYMMETRY AOS:          190
 NUMBER OF CONTRACTIONS:          146   (  146A   )
 NUMBER OF INNER CORE ORBITALS:     0   (    0A   )
 NUMBER OF OUTER CORE ORBITALS:     3   (    3A   )
 NUMBER OF VALENCE ORBITALS:       16   (   16A   )


 NUCLEAR REPULSION ENERGY   72.25977859


 Eigenvalues of metric

         1 0.119E-02 0.138E-02 0.147E-02 0.219E-02 0.227E-02 0.240E-02 0.275E-02 0.346E-02


 Contracted 2-electron integrals neglected if value below      1.0D-11
 AO integral compression algorithm  1   Integral accuracy      1.0D-11

     249.823 MB (compressed) written to integral file ( 47.6%)


 NUMBER OF SORTED TWO-ELECTRON INTEGRALS:   57582546.     BUFFER LENGTH:  32768
 NUMBER OF SEGMENTS:   4  SEGMENT LENGTH:   15999503      RECORD LENGTH: 524288

 Memory used in sort:      16.56 MW

 SORT1 READ    65609143. AND WROTE    54812630. INTEGRALS IN    160 RECORDS. CPU TIME:     0.76 SEC, REAL TIME:     1.71 SEC
 SORT2 READ    54812630. AND WROTE    57582546. INTEGRALS IN    953 RECORDS. CPU TIME:     1.06 SEC, REAL TIME:     1.47 SEC

 FILE SIZES:   FILE 1:   280.7 MBYTE,  FILE 4:   671.2 MBYTE,   TOTAL:    951.9 MBYTE

 OPERATOR DM      FOR CENTER  0  COORDINATES:    0.000000    0.000000    0.000000


 **********************************************************************************************************************************
 DATASETS  * FILE   NREC   LENGTH (MB)   RECORD NAMES
              1      19      240.03       500      610      700      900      950      970     1000      129      960     1100   
                                          VAR    BASINP    GEOM    SYMINP    ZMAT    AOBASIS   BASIS     P2S    ABASIS      S 
                                         1400     1410     1200     1210     1080     1600     1650     1300     1700   
                                           T        V       H0       H01     AOSYM     SMH    MOLCAS    ERIS     OPER   

 PROGRAMS   *        TOTAL       INT
 CPU TIMES  *         6.16      6.02
 REAL TIME  *         9.35 SEC
 DISK USED  *       908.23 MB
 **********************************************************************************************************************************


 Program * Restricted Hartree-Fock

 Orbital guess generated from atomic densities. Full valence occupancy:   19

 Initial occupancy:  12

 NELEC=   24   SYM=1   MS2= 0   THRE=1.0D-08   THRD=3.2D-06   THRG=3.2D-06  HFMA2=F  DIIS_START=2   DIIS_MAX=10   DIIS_INCORE=F

 Level shifts:    0.00 (CLOSED)    0.00 (OPEN)    0.30 (GAP_MIN)

 ITER           ETOT              DE          GRAD        DDIFF     DIIS  NEXP   TIME(IT)  TIME(TOT)  DIAG
   1     -149.08416201    -149.08416201     0.00D+00     0.63D-01     0     0       0.62      1.22    start
   2     -149.12506659      -0.04090458     0.56D-02     0.86D-02     1     0       0.64      1.86    diag
   3     -149.13994535      -0.01487876     0.34D-02     0.32D-02     2     0       0.65      2.51    diag
   4     -149.14109038      -0.00114503     0.67D-03     0.84D-03     3     0       0.62      3.13    diag
   5     -149.14121325      -0.00012287     0.21D-03     0.26D-03     4     0       0.62      3.75    diag
   6     -149.14123765      -0.00002439     0.70D-04     0.13D-03     5     0       0.63      4.38    diag
   7     -149.14124144      -0.00000379     0.30D-04     0.59D-04     6     0       0.62      5.00    diag
   8     -149.14124186      -0.00000042     0.10D-04     0.21D-04     7     0       0.63      5.63    fixocc
   9     -149.14124191      -0.00000005     0.33D-05     0.73D-05     8     0       0.61      6.24    diag
  10     -149.14124192      -0.00000001     0.12D-05     0.26D-05     9     0       0.63      6.87    diag/orth
  11     -149.14124192      -0.00000000     0.24D-06     0.39D-06     0     0       0.62      7.49    diag

 Final occupancy:  12

 !RHF STATE 1.1 Energy               -149.141241917609
  RHF One-electron energy            -345.005260980379
  RHF Two-electron energy             123.604240472129
  RHF Kinetic energy                  148.924686055349
  RHF Nuclear energy                   72.259778590641
  RHF Virial quotient                  -1.001454130057

 !RHF STATE 1.1 Dipole moment           0.78433637     0.80492238     0.24471320
 Dipole moment /Debye                   1.99358419     2.04590863     0.62199890

 Orbital energies:

           1.1          2.1          3.1          4.1          5.1          6.1          7.1          8.1          9.1         10.1
    -15.568944   -15.516863   -11.309337    -1.252502    -1.137100    -0.822532    -0.737471    -0.630201    -0.618608    -0.524045

          11.1         12.1         13.1         14.1
     -0.417148    -0.363649     0.138162     0.162437


 HOMO     12.1    -0.363649 =      -9.8954eV
 LUMO     13.1     0.138162 =       3.7596eV
 LUMO-HOMO         0.501811 =      13.6550eV

 Orbitals saved in record  2100.2


 **********************************************************************************************************************************
 DATASETS  * FILE   NREC   LENGTH (MB)   RECORD NAMES
              1      19      240.03       500      610      700      900      950      970     1000      129      960     1100   
                                          VAR    BASINP    GEOM    SYMINP    ZMAT    AOBASIS   BASIS     P2S    ABASIS      S 
                                         1400     1410     1200     1210     1080     1600     1650     1300     1700   
                                           T        V       H0       H01     AOSYM     SMH    MOLCAS    ERIS     OPER   

              2       4        0.82       700     1000      520     2100   
                                         GEOM     BASIS   MCVARS     RHF  

 PROGRAMS   *        TOTAL    HF-SCF       INT
 CPU TIMES  *        13.66      7.50      6.02
 REAL TIME  *        18.21 SEC
 DISK USED  *       908.23 MB
 **********************************************************************************************************************************


 PROGRAM * MP3 (Closed-shell)     Authors: C. Hampel, H.-J. Werner, 1991, M. Deegan, P.J. Knowles, 1992


 Convergence thresholds:  THRVAR = 1.00D-08  THRDEN = 1.00D-06

 Number of core orbitals:           3 (   3 )
 Number of closed-shell orbitals:   9 (   9 )
 Number of external orbitals:     134 ( 134 )

 Molecular orbitals read from record     2100.2  Type=RHF/CANONICAL  

 Number of N-1 electron functions:               9
 Number of N-2 electron functions:              45
 Number of singly external CSFs:              1206
 Number of doubly external CSFs:            727821
 Total number of CSFs:                      729028

 Length of J-op  integral file:               0.00 MB
 Length of K-op  integral file:               1.53 MB

 Integral transformation finished. Total CPU:   1.07 sec, npass=  1  Memory used:   2.07 MW

 Reference energy:                   -149.14124192

                        CORR.ENERGY   TOTAL ENERGY   ENERGY CHANGE
 MP2:                   -0.58047577  -149.72171768    -0.58047577

 SCS-MP2 correlation energy:           -0.57453949   (PS=  1.200000  PT=  0.333333)
 SCS-MP2 total energy:               -149.71578140

 MP3(D):                -0.59513033  -149.73637225    -0.01465456



 RESULTS
 =======

  Reference energy                   -149.141241917609
  MP3 singlet pair energy              -0.400076082796
  MP3 triplet pair energy              -0.195054245492
  MP3 correlation energy               -0.595130328288

 !MP3 total energy                   -149.736372245897

 Timing summary (sec):

 STEP                 CPU(USER)    SYS     CPU(TOT)    WALL
 Transformation          1.13      0.09      1.22      1.49
 CCSD iterations        16.95      0.10     17.05      3.09

 Program statistics:

 Available memory in ccsd:               805306032
 Min. memory needed in ccsd:               2112519
 Max. memory used in ccsd:                 2729901
 Max. memory used in cckext:               2106275 ( 1 integral passes)



 **********************************************************************************************************************************
 DATASETS  * FILE   NREC   LENGTH (MB)   RECORD NAMES
              1      20      251.36       500      610      700      900      950      970     1000      129      960     1100   
                                          VAR    BASINP    GEOM    SYMINP    ZMAT    AOBASIS   BASIS     P2S    ABASIS      S 
                                         1400     1410     1200     1210     1080     1600     1650     1300     1700     1380   
                                           T        V       H0       H01     AOSYM     SMH    MOLCAS    ERIS     OPER     JKOP   

              2       4        0.82       700     1000      520     2100   
                                         GEOM     BASIS   MCVARS     RHF  

 PROGRAMS   *        TOTAL       MP3    HF-SCF       INT
 CPU TIMES  *        17.76      4.09      7.50      6.02
 REAL TIME  *        22.84 SEC
 DISK USED  *       908.23 MB
 **********************************************************************************************************************************

 Dump information in style XML to xml output                                                                      

 Orbitals will not be exported.

 **********************************************************************************************************************************

 MP3/cc-pVTZ energy=   -149.736372245897

             MP3          HF-SCF
   -149.73637225   -149.14124192
 **********************************************************************************************************************************
 Molpro calculation terminated
