
 Working directory              : /home/jovyan/scratch/molpro.RDNK3vLK81/
 Global scratch directory       : /home/jovyan/scratch/molpro.RDNK3vLK81/
 Wavefunction directory         : /home/jovyan/wfu/
 Main file repository           : /home/jovyan/scratch/molpro.RDNK3vLK81/

 id        : cardiff

 Nodes                nprocs
 jupyter-c-2efrancisan    1
 GA implementation: MPI file
 GA implementation (serial work in mppx): MPI file

 Using customized tuning parameters: mindgm=1; mindgv=20; mindgc=4; mindgr=1; noblas=0; minvec=7
 default implementation of scratch files=df  


 Variables initialized (1031), CPU time= 0.01 sec
 
 
 
 geometry={
 8
  C -0.069675 0.426757 -0.000517
  H -0.029832 1.509908 -0.008099
  C -1.249182 -0.196033 0.013868
  H -1.330339 -1.275694 0.016609
  H -2.164964 0.373561 0.006734
  H 1.220598 -1.153069 0.137248
  N 1.181782 -0.169417 -0.079545
  H 1.945210 0.346868 0.324216
 }
 basis=cc-pVTZ
 angstrom
 
 
 hf; ccsd
 
 
 
 {put,xml;noorbitals,nobasis}
 Commands initialized (841), CPU time= 0.01 sec, 704 directives.
 Default parameters read. Elapsed time= 0.08 sec

 Checking input...
 Passed
1


                                         ***  PROGRAM SYSTEM MOLPRO  ***
                                       Copyright, TTI GmbH Stuttgart, 2015
                                    Version 2023.1 linked Mon Jun  5 13:27:10 2023


 **********************************************************************************************************************************
 LABEL *                                                                                                                                                                 
  (16 PROC) 64 bit serial version                                                        DATE: 02-Aug-23          TIME: 15:49:24  
 **********************************************************************************************************************************

 SHA1:             9738a14712571edd23541b6d7c4f3a3d766f8287
 **********************************************************************************************************************************

 Memory per process:       805 MW
 Total memory per node:   1074 MW
 Total GA space:           268 MW

 GA preallocation disabled
 GA check enabled

 Geometry recognized as XYZ


 Variable memory set to 805.3 MW

 SETTING BASIS          =    CC-PVTZ


 Recomputing integrals since basis changed


 Using spherical harmonics

 Library entry C      S cc-pVTZ              selected for orbital group  1
 Library entry C      P cc-pVTZ              selected for orbital group  1
 Library entry C      D cc-pVTZ              selected for orbital group  1
 Library entry C      F cc-pVTZ              selected for orbital group  1
 Library entry H      S cc-pVTZ              selected for orbital group  2
 Library entry H      P cc-pVTZ              selected for orbital group  2
 Library entry H      D cc-pVTZ              selected for orbital group  2
 Library entry N      S cc-pVTZ              selected for orbital group  5
 Library entry N      P cc-pVTZ              selected for orbital group  5
 Library entry N      D cc-pVTZ              selected for orbital group  5
 Library entry N      F cc-pVTZ              selected for orbital group  5


 PROGRAM * SEWARD (Integral evaluation for generally contracted gaussian basis sets)     Author: Roland Lindh, 1990

 Geometry written to block  1 of record 700


 Point group  C1  



 ATOMIC COORDINATES

 NR  ATOM    CHARGE       X              Y              Z

   1  C       6.00   -0.131666668    0.806453852   -0.000976988
   2  H       1.00   -0.056374310    2.853312593   -0.015304892
   3  C       6.00   -2.360611860   -0.370448681    0.026206722
   4  H       1.00   -2.513976363   -2.410712279    0.031386461
   5  H       1.00   -4.091189030    0.705927981    0.012725416
   6  H       1.00    2.306595928   -2.178984613    0.259361131
   7  N       7.00    2.233244319   -0.320151731   -0.150318265
   8  H       1.00    3.675914155    0.655485521    0.612679445

 Bond lengths in Bohr (Angstrom)

 1-2  2.048293176  1-3  2.520721166  1-7  2.623803905  3-4  2.046026160  3-5  2.038054417
     ( 1.083910070)     ( 1.333908196)     ( 1.388457232)     ( 1.082710417)     ( 1.078491952)

 6-7  1.904856254  7-8  1.901402064
     ( 1.008006520)     ( 1.006178641)

 Bond angles

  1-3-4  122.13286458   1-3-5  120.27754262   1-7-6  116.19778709   1-7-8  116.14943999

  2-1-3  119.94334470   2-1-7  113.30017472   3-1-7  126.66534437   4-3-5  117.58215318

  6-7-8  112.65590079

 NUCLEAR CHARGE:                   24
 NUMBER OF PRIMITIVE AOS:         226
 NUMBER OF SYMMETRY AOS:          206
 NUMBER OF CONTRACTIONS:          160   (  160A   )
 NUMBER OF INNER CORE ORBITALS:     0   (    0A   )
 NUMBER OF OUTER CORE ORBITALS:     3   (    3A   )
 NUMBER OF VALENCE ORBITALS:       17   (   17A   )


 NUCLEAR REPULSION ENERGY   71.64606044


 Eigenvalues of metric

         1 0.520E-03 0.857E-03 0.138E-02 0.140E-02 0.143E-02 0.175E-02 0.227E-02 0.268E-02


 Contracted 2-electron integrals neglected if value below      1.0D-11
 AO integral compression algorithm  1   Integral accuracy      1.0D-11

     347.341 MB (compressed) written to integral file ( 46.7%)


 NUMBER OF SORTED TWO-ELECTRON INTEGRALS:   82953640.     BUFFER LENGTH:  32768
 NUMBER OF SEGMENTS:   6  SEGMENT LENGTH:   15999503      RECORD LENGTH: 524288

 Memory used in sort:      16.56 MW

 SORT1 READ    93007717. AND WROTE    78151345. INTEGRALS IN    226 RECORDS. CPU TIME:     1.09 SEC, REAL TIME:     1.91 SEC
 SORT2 READ    78151345. AND WROTE    82953640. INTEGRALS IN   1325 RECORDS. CPU TIME:     1.49 SEC, REAL TIME:     2.03 SEC

 FILE SIZES:   FILE 1:   378.4 MBYTE,  FILE 4:   948.0 MBYTE,   TOTAL:   1326.4 MBYTE

 OPERATOR DM      FOR CENTER  0  COORDINATES:    0.000000    0.000000    0.000000


 **********************************************************************************************************************************
 DATASETS  * FILE   NREC   LENGTH (MB)   RECORD NAMES
              1      19      326.00       500      610      700      900      950      970     1000      129      960     1100   
                                          VAR    BASINP    GEOM    SYMINP    ZMAT    AOBASIS   BASIS     P2S    ABASIS      S 
                                         1400     1410     1200     1210     1080     1600     1650     1300     1700   
                                           T        V       H0       H01     AOSYM     SMH    MOLCAS    ERIS     OPER   

 PROGRAMS   *        TOTAL       INT
 CPU TIMES  *         8.33      8.19
 REAL TIME  *        11.44 SEC
 DISK USED  *         1.24 GB
 **********************************************************************************************************************************


 Program * Restricted Hartree-Fock

 Orbital guess generated from atomic densities. Full valence occupancy:   20

 Initial occupancy:  12

 NELEC=   24   SYM=1   MS2= 0   THRE=1.0D-08   THRD=3.2D-06   THRG=3.2D-06  HFMA2=F  DIIS_START=2   DIIS_MAX=10   DIIS_INCORE=F

 Level shifts:    0.00 (CLOSED)    0.00 (OPEN)    0.30 (GAP_MIN)

 ITER           ETOT              DE          GRAD        DDIFF     DIIS  NEXP   TIME(IT)  TIME(TOT)  DIAG
   1     -133.07148642    -133.07148642     0.00D+00     0.58D-01     0     0       0.87      1.73    start
   2     -133.11282922      -0.04134280     0.44D-02     0.65D-02     1     0       0.89      2.62    diag
   3     -133.11878563      -0.00595641     0.18D-02     0.19D-02     2     0       0.88      3.50    diag
   4     -133.11961314      -0.00082751     0.49D-03     0.71D-03     3     0       0.91      4.41    diag
   5     -133.11967875      -0.00006561     0.16D-03     0.18D-03     4     0       0.90      5.31    diag
   6     -133.11969093      -0.00001218     0.48D-04     0.87D-04     5     0       0.91      6.22    diag
   7     -133.11969258      -0.00000165     0.19D-04     0.34D-04     6     0       0.91      7.13    diag
   8     -133.11969273      -0.00000015     0.55D-05     0.12D-04     7     0       0.91      8.04    fixocc
   9     -133.11969274      -0.00000001     0.17D-05     0.36D-05     8     0       0.89      8.93    diag
  10     -133.11969275      -0.00000000     0.70D-06     0.14D-05     9     0       0.90      9.83    diag/orth
  11     -133.11969275      -0.00000000     0.17D-06     0.26D-06     0     0       0.90     10.73    diag

 Final occupancy:  12

 !RHF STATE 1.1 Energy               -133.119692747124
  RHF One-electron energy            -321.064800473993
  RHF Two-electron energy             116.299047282148
  RHF Kinetic energy                  132.940017830443
  RHF Nuclear energy                   71.646060444721
  RHF Virial quotient                  -1.001351548763

 !RHF STATE 1.1 Dipole moment           0.50021776     0.02915088     0.36314161
 Dipole moment /Debye                   1.27142674     0.07409414     0.92301391

 Orbital energies:

           1.1          2.1          3.1          4.1          5.1          6.1          7.1          8.1          9.1         10.1
    -15.558757   -11.265550   -11.194539    -1.207897    -0.991964    -0.787923    -0.698237    -0.634812    -0.570594    -0.516193

          11.1         12.1         13.1         14.1
     -0.492289    -0.314599     0.142129     0.168460


 HOMO     12.1    -0.314599 =      -8.5607eV
 LUMO     13.1     0.142129 =       3.8675eV
 LUMO-HOMO         0.456729 =      12.4282eV

 Orbitals saved in record  2100.2


 **********************************************************************************************************************************
 DATASETS  * FILE   NREC   LENGTH (MB)   RECORD NAMES
              1      19      326.00       500      610      700      900      950      970     1000      129      960     1100   
                                          VAR    BASINP    GEOM    SYMINP    ZMAT    AOBASIS   BASIS     P2S    ABASIS      S 
                                         1400     1410     1200     1210     1080     1600     1650     1300     1700   
                                           T        V       H0       H01     AOSYM     SMH    MOLCAS    ERIS     OPER   

              2       4        0.91       700     1000      520     2100   
                                         GEOM     BASIS   MCVARS     RHF  

 PROGRAMS   *        TOTAL    HF-SCF       INT
 CPU TIMES  *        19.06     10.72      8.19
 REAL TIME  *        23.37 SEC
 DISK USED  *         1.24 GB
 **********************************************************************************************************************************


 PROGRAM * CCSD (Closed-shell coupled cluster)     Authors: C. Hampel, H.-J. Werner, 1991, M. Deegan, P.J. Knowles, 1992


 Convergence thresholds:  THRVAR = 1.00D-08  THRDEN = 1.00D-06

 Number of core orbitals:           3 (   3 )
 Number of closed-shell orbitals:   9 (   9 )
 Number of external orbitals:     148 ( 148 )

 Molecular orbitals read from record     2100.2  Type=RHF/CANONICAL  

 Number of N-1 electron functions:               9
 Number of N-2 electron functions:              45
 Number of singly external CSFs:              1332
 Number of doubly external CSFs:            887778
 Total number of CSFs:                      889111

 Length of J-op  integral file:               0.00 MB
 Length of K-op  integral file:               1.82 MB
 Length of 3-ext integral record:             0.00 MB

 Integral transformation finished. Total CPU:   3.71 sec, npass=  1  Memory used:  23.10 MW

 Reference energy:                   -133.11969275

 MP2 singlet pair energy:              -0.35584804
 MP2 triplet pair energy:              -0.18935307
 MP2 correlation energy:               -0.54520110
 MP2 total energy:                   -133.66489385

 SCS-MP2 correlation energy:           -0.54483733   (PS=  1.200000  PT=  0.333333)
 SCS-MP2 total energy:               -133.66453008

 ITER.      SQ.NORM     CORR.ENERGY   TOTAL ENERGY   ENERGY CHANGE        DEN1      VAR(S)    VAR(P)  DIIS     TIME  TIME/IT
   1      1.17804735    -0.56857523  -133.68826798    -0.02337413    -0.00951241  0.23D-02  0.27D-02  1  1    28.02     5.32
   2      1.19069265    -0.57067456  -133.69036731    -0.00209933    -0.01262486  0.47D-04  0.41D-03  2  2    32.96     5.42
   3      1.19591573    -0.57086249  -133.69055523    -0.00018792    -0.00270244  0.35D-04  0.33D-04  3  3    37.75     5.30
   4      1.19794282    -0.57089848  -133.69059122    -0.00003599    -0.00068771  0.28D-05  0.47D-05  4  4    42.57     5.25
   5      1.19858512    -0.57090245  -133.69059520    -0.00000398    -0.00013542  0.60D-06  0.45D-06  5  5    47.44     5.25
   6      1.19877593    -0.57089405  -133.69058680     0.00000840    -0.00002797  0.54D-07  0.32D-07  6  6    52.30     5.23
   7      1.19880317    -0.57089293  -133.69058567     0.00000113    -0.00000138  0.61D-08  0.42D-08  6  2    57.21     5.22
   8      1.19880784    -0.57089273  -133.69058547     0.00000020     0.00000019  0.14D-08  0.52D-09  6  1    61.99     5.20
   9      1.19880998    -0.57089263  -133.69058537     0.00000010    -0.00000003  0.18D-09  0.89D-10  6  3    66.66     5.17

 Norm of t1 vector:      0.06894098      S-energy:    -0.00000014      T1 diagnostic:  0.01149016
                                                                       D1 diagnostic:  0.03471708
                                                                       D2 diagnostic:  0.18661582 (internal)

 Doubles amplitudes (print threshold =  0.500E-01):

         I         J         SYM. A    SYM. B    A         B      T(IJ, AB)

         9         9         1         1         4         4     -0.08853020


 RESULTS
 =======

  Reference energy                   -133.119692747124
  CCSD singlet pair energy             -0.398550059821
  CCSD triplet pair energy             -0.172342426660
  CCSD correlation energy              -0.570892625610

 !CCSD total energy                  -133.690585372735

 Timing summary (sec):

 STEP                 CPU(USER)    SYS     CPU(TOT)    WALL
 Transformation          3.78      0.36      4.14      4.72
 CCSD iterations        62.95      1.76     64.71     46.65

 Program statistics:

 Available memory in ccsd:               805306032
 Min. memory needed in ccsd:               2562521
 Max. memory used in ccsd:                 3319133
 Max. memory used in cckext:               2527058 ( 9 integral passes)



 **********************************************************************************************************************************
 DATASETS  * FILE   NREC   LENGTH (MB)   RECORD NAMES
              1      20      451.66       500      610      700      900      950      970     1000      129      960     1100   
                                          VAR    BASINP    GEOM    SYMINP    ZMAT    AOBASIS   BASIS     P2S    ABASIS      S 
                                         1400     1410     1200     1210     1080     1600     1650     1300     1700     1380   
                                           T        V       H0       H01     AOSYM     SMH    MOLCAS    ERIS     OPER     JKOP   

              2       4        0.91       700     1000      520     2100   
                                         GEOM     BASIS   MCVARS     RHF  

 PROGRAMS   *        TOTAL      CCSD    HF-SCF       INT
 CPU TIMES  *        66.41     47.36     10.72      8.19
 REAL TIME  *        74.80 SEC
 DISK USED  *         1.24 GB
 **********************************************************************************************************************************

 Dump information in style XML to xml output                                                                      

 Orbitals will not be exported.

 **********************************************************************************************************************************

 CCSD/cc-pVTZ energy=   -133.690585372735

            CCSD          HF-SCF
   -133.69058537   -133.11969275
 **********************************************************************************************************************************
 Molpro calculation terminated
