
 Working directory              : /home/jovyan/scratch/molpro.LVNsprEBzm/
 Global scratch directory       : /home/jovyan/scratch/molpro.LVNsprEBzm/
 Wavefunction directory         : /home/jovyan/wfu/
 Main file repository           : /home/jovyan/scratch/molpro.LVNsprEBzm/

 id        : cardiff

 Nodes                nprocs
 jupyter-c-2efrancisan    1
 GA implementation: MPI file
 GA implementation (serial work in mppx): MPI file

 Using customized tuning parameters: mindgm=1; mindgv=20; mindgc=4; mindgr=1; noblas=0; minvec=7
 default implementation of scratch files=df  


 Variables initialized (1031), CPU time= 0.00 sec
 
 
 
 geometry={
            4
     N          0.44531110      0.15160583      0.00000000
     N          1.57525933      0.20103027      0.00000000
     N         -0.78577609      0.28131271      0.00000000
     H         -1.23479434     -0.63394881      0.00000000
 }
 basis=cc-pVDZ
 angstrom
 
 
 hf; papt;mp3
 
 
 
 {put,xml;noorbitals,nobasis}
 Commands initialized (841), CPU time= 0.01 sec, 704 directives.
 Default parameters read. Elapsed time= 0.08 sec

 Checking input...
 Passed
1


                                         ***  PROGRAM SYSTEM MOLPRO  ***
                                       Copyright, TTI GmbH Stuttgart, 2015
                                    Version 2023.1 linked Mon Jun  5 13:27:10 2023


 **********************************************************************************************************************************
 LABEL *                                                                                                                                                                 
  (16 PROC) 64 bit serial version                                                        DATE: 03-Aug-23          TIME: 10:54:46  
 **********************************************************************************************************************************

 SHA1:             9738a14712571edd23541b6d7c4f3a3d766f8287
 **********************************************************************************************************************************

 Memory per process:       805 MW
 Total memory per node:   1074 MW
 Total GA space:           268 MW

 GA preallocation disabled
 GA check enabled

 Geometry recognized as XYZ


 Variable memory set to 805.3 MW

 SETTING BASIS          =    CC-PVDZ


 Recomputing integrals since basis changed


 Using spherical harmonics

 Library entry N      S cc-pVDZ              selected for orbital group  1
 Library entry N      P cc-pVDZ              selected for orbital group  1
 Library entry N      D cc-pVDZ              selected for orbital group  1
 Library entry H      S cc-pVDZ              selected for orbital group  2
 Library entry H      P cc-pVDZ              selected for orbital group  2


 PROGRAM * SEWARD (Integral evaluation for generally contracted gaussian basis sets)     Author: Roland Lindh, 1990

 Geometry written to block  1 of record 700


 Point group  Cs  



 ATOMIC COORDINATES

 NR  ATOM    CHARGE       X              Y              Z

   1  N       7.00    0.841516019    0.286493498    0.000000000
   2  N       7.00    2.976808709    0.379892153    0.000000000
   3  N       7.00   -1.484901605    0.531603977    0.000000000
   4  H       1.00   -2.333423123   -1.197989628    0.000000000

 Bond lengths in Bohr (Angstrom)

 1-2  2.137334363  1-3  2.339294362  3-4  1.926520907
     ( 1.131028637)     ( 1.237901266)     ( 1.019470960)

 Bond angles

  1-3-4  110.11763997   2-1-3  171.48098119

 NUCLEAR CHARGE:                   22
 NUMBER OF PRIMITIVE AOS:          88
 NUMBER OF SYMMETRY AOS:           85
 NUMBER OF CONTRACTIONS:           47   (   34A'  +   13A"  )
 NUMBER OF INNER CORE ORBITALS:     0   (    0A'  +    0A"  )
 NUMBER OF OUTER CORE ORBITALS:     3   (    3A'  +    0A"  )
 NUMBER OF VALENCE ORBITALS:       13   (   10A'  +    3A"  )


 NUCLEAR REPULSION ENERGY   61.74256809

 Eigenvalues of metric

         1 0.180E-02 0.520E-02 0.267E-01 0.400E-01 0.477E-01 0.590E-01 0.867E-01 0.106E+00
         2 0.913E-01 0.169E+00 0.206E+00 0.321E+00 0.494E+00 0.542E+00 0.842E+00 0.109E+01


 Contracted 2-electron integrals neglected if value below      1.0D-11
 AO integral compression algorithm  1   Integral accuracy      1.0D-11

     2.097 MB (compressed) written to integral file ( 62.5%)


 NUMBER OF SORTED TWO-ELECTRON INTEGRALS:     343931.     BUFFER LENGTH:  32768
 NUMBER OF SEGMENTS:   1  SEGMENT LENGTH:     343931      RECORD LENGTH: 524288

 Memory used in sort:       0.90 MW

 SORT1 READ      421569. AND WROTE      336736. INTEGRALS IN      1 RECORDS. CPU TIME:     0.00 SEC, REAL TIME:     0.07 SEC
 SORT2 READ      336736. AND WROTE      343931. INTEGRALS IN      8 RECORDS. CPU TIME:     0.03 SEC, REAL TIME:     0.03 SEC

 FILE SIZES:   FILE 1:    32.2 MBYTE,  FILE 4:     4.3 MBYTE,   TOTAL:     36.5 MBYTE

 OPERATOR DM      FOR CENTER  0  COORDINATES:    0.000000    0.000000    0.000000


 **********************************************************************************************************************************
 DATASETS  * FILE   NREC   LENGTH (MB)   RECORD NAMES
              1      19       30.21       500      610      700      900      950      970     1000      129      960     1100   
                                          VAR    BASINP    GEOM    SYMINP    ZMAT    AOBASIS   BASIS     P2S    ABASIS      S 
                                         1400     1410     1200     1210     1080     1600     1650     1300     1700   
                                           T        V       H0       H01     AOSYM     SMH    MOLCAS    ERIS     OPER   

 PROGRAMS   *        TOTAL       INT
 CPU TIMES  *         0.62      0.48
 REAL TIME  *         1.96 SEC
 DISK USED  *        35.14 MB
 **********************************************************************************************************************************


 Program * Restricted Hartree-Fock

 Orbital guess generated from atomic densities. Full valence occupancy:   13   3

 Initial occupancy:   9   2

 NELEC=   22   SYM=1   MS2= 0   THRE=1.0D-08   THRD=3.2D-06   THRG=3.2D-06  HFMA2=F  DIIS_START=2   DIIS_MAX=10   DIIS_INCORE=F

 Level shifts:    0.00 (CLOSED)    0.00 (OPEN)    0.30 (GAP_MIN)

 ITER           ETOT              DE          GRAD        DDIFF     DIIS  NEXP   TIME(IT)  TIME(TOT)  DIAG
   1     -163.78508341    -163.78508341     0.00D+00     0.23D+00     0     0       0.00      0.01    start
   2     -163.82018240      -0.03509899     0.18D-01     0.38D-01     1     0       0.00      0.01    diag
   3     -163.85328251      -0.03310011     0.13D-01     0.19D-01     2     0       0.01      0.02    diag
   4     -163.85453158      -0.00124906     0.20D-02     0.41D-02     3     0       0.00      0.02    diag
   5     -163.85500945      -0.00047788     0.12D-02     0.20D-02     4     0       0.01      0.03    diag
   6     -163.85516269      -0.00015324     0.37D-03     0.12D-02     5     0       0.00      0.03    diag
   7     -163.85522543      -0.00006274     0.19D-03     0.87D-03     6     0       0.00      0.03    diag
   8     -163.85524617      -0.00002074     0.10D-03     0.64D-03     7     0       0.00      0.03    fixocc
   9     -163.85524870      -0.00000253     0.40D-04     0.26D-03     8     0       0.01      0.04    diag
  10     -163.85524879      -0.00000009     0.11D-04     0.43D-04     9     0       0.00      0.04    diag/orth
  11     -163.85524880      -0.00000000     0.21D-05     0.74D-05     9     0       0.01      0.05    diag
  12     -163.85524880      -0.00000000     0.68D-06     0.27D-05     9     0       0.00      0.05    diag
  13     -163.85524880      -0.00000000     0.16D-06     0.33D-06     0     0       0.00      0.05    diag

 Final occupancy:   9   2

 !RHF STATE 1.1 Energy               -163.855248795651
  RHF One-electron energy            -343.955697031956
  RHF Two-electron energy             118.357880149114
  RHF Kinetic energy                  163.534186848774
  RHF Nuclear energy                   61.742568087191
  RHF Virial quotient                  -1.001963271124

 !RHF STATE 1.1 Dipole moment          -0.21281590    -0.68188580     0.00000000
 Dipole moment /Debye                  -0.54092406    -1.73318082     0.00000000

 Orbital energies:

           1.1          2.1          3.1          4.1          5.1          6.1          7.1          8.1          9.1         10.1
    -15.794407   -15.676749   -15.609134    -1.510336    -1.285488    -0.820800    -0.703937    -0.663590    -0.461776     0.140631

          11.1
      0.195205

           1.2          2.2          3.2          4.2
     -0.698870    -0.394883     0.180893     0.870677


 HOMO      2.2    -0.394883 =     -10.7453eV
 LUMO     10.1     0.140631 =       3.8268eV
 LUMO-HOMO         0.535514 =      14.5721eV

 Orbitals saved in record  2100.2


 **********************************************************************************************************************************
 DATASETS  * FILE   NREC   LENGTH (MB)   RECORD NAMES
              1      19       30.21       500      610      700      900      950      970     1000      129      960     1100   
                                          VAR    BASINP    GEOM    SYMINP    ZMAT    AOBASIS   BASIS     P2S    ABASIS      S 
                                         1400     1410     1200     1210     1080     1600     1650     1300     1700   
                                           T        V       H0       H01     AOSYM     SMH    MOLCAS    ERIS     OPER   

              2       4        0.45       700     1000      520     2100   
                                         GEOM     BASIS   MCVARS     RHF  

 PROGRAMS   *        TOTAL    HF-SCF       INT
 CPU TIMES  *         0.68      0.06      0.48
 REAL TIME  *         2.26 SEC
 DISK USED  *        35.14 MB
 **********************************************************************************************************************************


 PROGRAM * PAPT (Closed-shell)     Authors: C. Hampel, H.-J. Werner, 1991, P.J. Knowles, 2021


 Convergence thresholds:  THRVAR = 1.00D-08  THRDEN = 1.00D-06

 Number of core orbitals:           3 (   3   0 )
 Number of closed-shell orbitals:   8 (   6   2 )
 Number of external orbitals:      36 (  25  11 )

 Molecular orbitals read from record     2100.2  Type=RHF/CANONICAL  

 Number of N-1 electron functions:               8
 Number of N-2 electron functions:              36
 Number of singly external CSFs:               172
 Number of doubly external CSFs:             21664
 Total number of CSFs:                       21837

 Length of J-op  integral file:               0.00 MB
 Length of K-op  integral file:               0.15 MB

 Integral transformation finished. Total CPU:   0.01 sec, npass=  1  Memory used:   0.12 MW

 Reference energy:                   -163.85524880

                        CORR.ENERGY   TOTAL ENERGY   ENERGY CHANGE
 MP2:                   -0.50435554  -164.35960434    -0.50435554

 SCS-MP2 correlation energy:           -0.48473471   (PS=  1.200000  PT=  0.333333)
 SCS-MP2 total energy:               -164.33998350
 Iteration:   1     0.6187D+00
 Iteration:   2     0.4711D+00
 Iteration:   3     0.1948D+00
 Iteration:   4     0.1490D+00
 Iteration:   5     0.1053D+00
 Iteration:   6     0.6038D-01
 Iteration:   7     0.1510D+01
 Iteration:   8     0.3514D-01
 Iteration:   9     0.6104D-01
 Iteration:  10     0.1346D-01
 Iteration:  11     0.1791D-01
 Iteration:  12     0.6315D-02
 Iteration:  13     0.5814D-02
 Iteration:  14     0.2522D-02
 Iteration:  15     0.9061D-03
 Iteration:  16     0.2385D-02
 Iteration:  17     0.2462D-03
 Iteration:  18     0.1268D-02
 Iteration:  19     0.7566D-04
 PAPT operator written to  7000.1
 PAPT orbitals and eigenvalues written to  7000.2

 MP3(D):                -0.49067255  -164.34592135     0.01368299



 RESULTS
 =======

  Reference energy                   -163.855248795651
  MP3 singlet pair energy              -0.313873448080
  MP3 triplet pair energy              -0.176799106801
  MP3 correlation energy               -0.490672554881

 !MP3 total energy                   -164.345921350532

 Timing summary (sec):

 STEP                 CPU(USER)    SYS     CPU(TOT)    WALL
 Transformation          0.01      0.00      0.01      0.02
 CCSD iterations         1.03      0.01      1.04      0.16

 Program statistics:

 Available memory in ccsd:               805306103
 Min. memory needed in ccsd:                 80166
 Max. memory used in ccsd:                   95124
 Max. memory used in cckext:                141795 ( 1 integral passes)



 **********************************************************************************************************************************
 DATASETS  * FILE   NREC   LENGTH (MB)   RECORD NAMES
              1      21       30.73       500      610      700      900      950      970     1000      129      960     1100   
                                          VAR    BASINP    GEOM    SYMINP    ZMAT    AOBASIS   BASIS     P2S    ABASIS      S 
                                         1400     1410     1200     1210     1080     1600     1650     1300     1700     1380   
                                           T        V       H0       H01     AOSYM     SMH    MOLCAS    ERIS     OPER     JKOP   
                                         7000   
                                        PAPT AO    

              2       5        0.58       700     1000      520     2100     7000   
                                         GEOM     BASIS   MCVARS     RHF     PAPT   

 PROGRAMS   *        TOTAL      PAPT    HF-SCF       INT
 CPU TIMES  *         0.84      0.16      0.06      0.48
 REAL TIME  *         2.48 SEC
 DISK USED  *        35.14 MB
 **********************************************************************************************************************************


 PROGRAM * MP3 (Closed-shell)     Authors: C. Hampel, H.-J. Werner, 1991, M. Deegan, P.J. Knowles, 1992


 Convergence thresholds:  THRVAR = 1.00D-08  THRDEN = 1.00D-06

 Number of core orbitals:           3 (   3   0 )
 Number of closed-shell orbitals:   8 (   6   2 )
 Number of external orbitals:      36 (  25  11 )

 Molecular orbitals read from record     7000.2  Type=PAPT/CANONICAL (state 1.1)

 Number of N-1 electron functions:               8
 Number of N-2 electron functions:              36
 Number of singly external CSFs:               172
 Number of doubly external CSFs:             21664
 Total number of CSFs:                       21837

 Length of J-op  integral file:               0.00 MB
 Length of K-op  integral file:               0.15 MB

 Integral transformation finished. Total CPU:   0.00 sec, npass=  1  Memory used:   0.12 MW
 Orbital energies read from record       7000.2  Type=PAPT/CANONICAL (state 1.1)

 Reference energy:                   -163.85524880

                        CORR.ENERGY   TOTAL ENERGY   ENERGY CHANGE
 MP2:                   -0.49684069  -164.35208948    -0.49684069

 SCS-MP2 correlation energy:           -0.48017026   (PS=  1.200000  PT=  0.333333)
 SCS-MP2 total energy:               -164.33541906

 MP3(D):                -0.49686982  -164.35211862    -0.00002914



 RESULTS
 =======

  Reference energy                   -163.855248795651
  MP3 singlet pair energy              -0.316047274915
  MP3 triplet pair energy              -0.180822548882
  MP3 correlation energy               -0.496869823797

 !MP3 total energy                   -164.352118619448

 Timing summary (sec):

 STEP                 CPU(USER)    SYS     CPU(TOT)    WALL
 Transformation          0.01      0.00      0.01      0.06
 CCSD iterations         1.10      0.01      1.11      0.12

 Program statistics:

 Available memory in ccsd:               805306103
 Min. memory needed in ccsd:                 80166
 Max. memory used in ccsd:                   95124
 Max. memory used in cckext:                141795 ( 1 integral passes)



 **********************************************************************************************************************************
 DATASETS  * FILE   NREC   LENGTH (MB)   RECORD NAMES
              1      21       30.73       500      610      700      900      950      970     1000      129      960     1100   
                                          VAR    BASINP    GEOM    SYMINP    ZMAT    AOBASIS   BASIS     P2S    ABASIS      S 
                                         1400     1410     1200     1210     1080     1600     1650     1300     1700     1380   
                                           T        V       H0       H01     AOSYM     SMH    MOLCAS    ERIS     OPER     JKOP   
                                         7000   
                                        PAPT AO    

              2       5        0.58       700     1000      520     2100     7000   
                                         GEOM     BASIS   MCVARS     RHF     PAPT   

 PROGRAMS   *        TOTAL       MP3      PAPT    HF-SCF       INT
 CPU TIMES  *         0.92      0.06      0.16      0.06      0.48
 REAL TIME  *         2.71 SEC
 DISK USED  *        35.14 MB
 **********************************************************************************************************************************

 Dump information in style XML to xml output                                                                      

 Orbitals will not be exported.

 **********************************************************************************************************************************

 MP3/cc-pVDZ energy=   -164.352118619448

             MP3            PAPT          HF-SCF
   -164.35211862   -164.34592135   -163.85524880
 **********************************************************************************************************************************
 Molpro calculation terminated
