
 Working directory              : /home/jovyan/scratch/molpro.6wzATixAG2/
 Global scratch directory       : /home/jovyan/scratch/molpro.6wzATixAG2/
 Wavefunction directory         : /home/jovyan/wfu/
 Main file repository           : /home/jovyan/scratch/molpro.6wzATixAG2/

 id        : cardiff

 Nodes                nprocs
 jupyter-c-2efrancisan    1
 GA implementation: MPI file
 GA implementation (serial work in mppx): MPI file

 Using customized tuning parameters: mindgm=1; mindgv=20; mindgc=4; mindgr=1; noblas=0; minvec=7
 default implementation of scratch files=df  


 Variables initialized (1031), CPU time= 0.00 sec
 
 
 
 geometry={
 16
  C    -1.5509383   -0.3046782    0.7974216
  C    -2.9173600   -0.2572608    0.4520777
  C    -3.1153913    0.0500720   -0.8576504
  S    -1.6397192    0.3001116   -1.6704985
  C    -0.7216777   -0.0254094   -0.2541573
  C     0.7216777    0.0254094   -0.2541573
  S     1.6397192   -0.3001116   -1.6704985
  C     3.1153913   -0.0500720   -0.8576504
  C     2.9173600    0.2572608    0.4520777
  C     1.5509383    0.3046782    0.7974216
  H    -1.1822260   -0.5588506    1.7767451
  H    -3.7197698   -0.4531472    1.1427536
  H    -4.0457132    0.1435962   -1.3858704
  H     4.0457132   -0.1435962   -1.3858704
  H     3.7197698    0.4531472    1.1427536
  H     1.1822260    0.5588506    1.7767451
 }
 basis=cc-pVTZ
 angstrom
 
 
 hf; mp4
 
 
 
 {put,xml;noorbitals,nobasis}
 Commands initialized (841), CPU time= 0.01 sec, 704 directives.
 Default parameters read. Elapsed time= 0.08 sec

 Checking input...
 Passed
1


                                         ***  PROGRAM SYSTEM MOLPRO  ***
                                       Copyright, TTI GmbH Stuttgart, 2015
                                    Version 2023.1 linked Mon Jun  5 13:27:10 2023


 **********************************************************************************************************************************
 LABEL *                                                                                                                                                                 
  (16 PROC) 64 bit serial version                                                        DATE: 03-Aug-23          TIME: 17:23:26  
 **********************************************************************************************************************************

 SHA1:             9738a14712571edd23541b6d7c4f3a3d766f8287
 **********************************************************************************************************************************

 Memory per process:       805 MW
 Total memory per node:   1074 MW
 Total GA space:           268 MW

 GA preallocation disabled
 GA check enabled

 Geometry recognized as XYZ


 Variable memory set to 805.3 MW

 SETTING BASIS          =    CC-PVTZ


 Recomputing integrals since basis changed


 Using spherical harmonics

 Library entry C      S cc-pVTZ              selected for orbital group  1
 Library entry C      P cc-pVTZ              selected for orbital group  1
 Library entry C      D cc-pVTZ              selected for orbital group  1
 Library entry C      F cc-pVTZ              selected for orbital group  1
 Library entry S      S cc-pVTZ              selected for orbital group  2
 Library entry S      P cc-pVTZ              selected for orbital group  2
 Library entry S      D cc-pVTZ              selected for orbital group  2
 Library entry S      F cc-pVTZ              selected for orbital group  2
 Library entry H      S cc-pVTZ              selected for orbital group  4
 Library entry H      P cc-pVTZ              selected for orbital group  4
 Library entry H      D cc-pVTZ              selected for orbital group  4


 PROGRAM * SEWARD (Integral evaluation for generally contracted gaussian basis sets)     Author: Roland Lindh, 1990

 Geometry written to block  1 of record 700


 Point group  C2  



 ATOMIC COORDINATES

 NR  ATOM    CHARGE       X              Y              Z

   1  C       6.00   -2.930848623   -0.575758354    1.506908430
   2  C       6.00    2.930848623    0.575758354    1.506908430
   3  C       6.00   -5.513011407   -0.486152455    0.854303040
   4  C       6.00    5.513011407    0.486152455    0.854303040
   5  C       6.00   -5.887236328    0.094622367   -1.620724367
   6  C       6.00    5.887236328   -0.094622367   -1.620724367
   7  S      16.00   -3.098620209    0.567128731   -3.156784657
   8  S      16.00    3.098620209   -0.567128731   -3.156784657
   9  C       6.00   -1.363773203   -0.048016807   -0.480287690
  10  C       6.00    1.363773203    0.048016807   -0.480287690
  11  H       1.00   -2.234083357   -1.056074579    3.357561632
  12  H       1.00    2.234083357    1.056074579    3.357561632
  13  H       1.00   -7.029346169   -0.856324102    2.159491332
  14  H       1.00    7.029346169    0.856324102    2.159491332
  15  H       1.00   -7.645289927    0.271357491   -2.618915500
  16  H       1.00    7.645289927   -0.271357491   -2.618915500

 Bond lengths in Bohr (Angstrom)

  1- 3  2.664861658   1- 9  2.585185666   1-11  2.034969972   2- 4  2.664861658   2-10  2.585185666
       ( 1.410184059)       ( 1.368021341)       ( 1.076859734)       ( 1.410184059)       ( 1.368021341)

  2-12  2.034969972   3- 5  2.569650628   3-13  2.034653444   4- 6  2.569650628   4-14  2.034653444
       ( 1.076859734)       ( 1.359800552)       ( 1.076692234)       ( 1.359800552)       ( 1.076692234)

  5- 7  3.218559202   5-15  2.029377564   6- 8  3.218559202   6-16  2.029377564   7- 9  3.248343298
       ( 1.703188182)       ( 1.073900359)       ( 1.703188182)       ( 1.073900359)       ( 1.718949246)

  8-10  3.248343298   9-10  2.729236497
       ( 1.718949246)       ( 1.444249757)

 Bond angles

  1- 3- 5  112.61815700   1- 3-13  123.98085311   1- 9- 7  110.38229586   1- 9-10  127.80550087

  2- 4- 6  112.61815700   2- 4-14  123.98085311   2-10- 8  110.38229586   2-10- 9  127.80550087

  3- 1- 9  113.09481155   3- 1-11  124.22321755   3- 5- 7  111.51091915   3- 5-15  128.28716095

  4- 2-10  113.09481155   4- 2-12  124.22321755   4- 6- 8  111.51091915   4- 6-16  128.28716095

  5- 3-13  123.39747657   5- 7- 9   92.38953509   6- 4-14  123.39747657   6- 8-10   92.38953509

  7- 5-15  120.20187923   7- 9-10  121.80818252   8- 6-16  120.20187923   8-10- 9  121.80818252

  9- 1-11  122.66282548  10- 2-12  122.66282548

 NUCLEAR CHARGE:                   86
 NUMBER OF PRIMITIVE AOS:         606
 NUMBER OF SYMMETRY AOS:          550
 NUMBER OF CONTRACTIONS:          392   (  196A   +  196B   )
 NUMBER OF INNER CORE ORBITALS:     2   (    1A   +    1B   )
 NUMBER OF OUTER CORE ORBITALS:    16   (    8A   +    8B   )
 NUMBER OF VALENCE ORBITALS:       46   (   23A   +   23B   )


 NUCLEAR REPULSION ENERGY  639.94940090


 Eigenvalues of metric

         1 0.950E-04 0.510E-03 0.772E-03 0.945E-03 0.996E-03 0.126E-02 0.127E-02 0.135E-02
         2 0.659E-04 0.978E-04 0.457E-03 0.606E-03 0.822E-03 0.909E-03 0.112E-02 0.121E-02


 Contracted 2-electron integrals neglected if value below      1.0D-11
 AO integral compression algorithm  1   Integral accuracy      1.0D-11

     6231.163 MB (compressed) written to integral file ( 46.9%)


 NUMBER OF SORTED TWO-ELECTRON INTEGRALS: 1490905850.     BUFFER LENGTH:  32768
 NUMBER OF SEGMENTS:  47  SEGMENT LENGTH:   31999968      RECORD LENGTH: 524288

 Memory used in sort:      32.56 MW

 SORT1 READ  1662292048. AND WROTE  1436425627. INTEGRALS IN   4136 RECORDS. CPU TIME:    27.69 SEC, REAL TIME:    41.45 SEC
 SORT2 READ  1436425627. AND WROTE  1490905850. INTEGRALS IN  23770 RECORDS. CPU TIME:    32.05 SEC, REAL TIME:   239.07 SEC

 FILE SIZES:   FILE 1:  6265.3 MBYTE,  FILE 4: 17347.7 MBYTE,   TOTAL:  23613.0 MBYTE

 OPERATOR DM      FOR CENTER  0  COORDINATES:    0.000000    0.000000    0.000000


 **********************************************************************************************************************************
 DATASETS  * FILE   NREC   LENGTH (MB)   RECORD NAMES
              1      19     5614.62       500      610      700      900      950      970     1000      129      960     1100   
                                          VAR    BASINP    GEOM    SYMINP    ZMAT    AOBASIS   BASIS     P2S    ABASIS      S 
                                         1400     1410     1200     1210     1080     1600     1650     1300     1700   
                                           T        V       H0       H01     AOSYM     SMH    MOLCAS    ERIS     OPER   

 PROGRAMS   *        TOTAL       INT
 CPU TIMES  *       190.23    190.09
 REAL TIME  *       432.92 SEC
 DISK USED  *        21.99 GB
 **********************************************************************************************************************************


 Program * Restricted Hartree-Fock

 Orbital guess generated from atomic densities. Full valence occupancy:   32  32

 Initial occupancy:  22  21

 NELEC=   86   SYM=1   MS2= 0   THRE=1.0D-08   THRD=3.2D-06   THRG=3.2D-06  HFMA2=F  DIIS_START=2   DIIS_MAX=10   DIIS_INCORE=F

 Level shifts:    0.00 (CLOSED)    0.00 (OPEN)    0.30 (GAP_MIN)

 ITER           ETOT              DE          GRAD        DDIFF     DIIS  NEXP   TIME(IT)  TIME(TOT)  DIAG
   1    -1101.47257604   -1101.47257604     0.00D+00     0.63D-01     0     0      10.95     21.37    start
   2    -1101.56202702      -0.08945098     0.33D-02     0.58D-02     1     0      11.13     32.50    diag
   3    -1101.59534734      -0.03332032     0.21D-02     0.25D-02     2     0      10.78     43.28    diag
   4    -1101.59959386      -0.00424652     0.52D-03     0.10D-02     3     0      10.69     53.97    diag
   5    -1101.59994719      -0.00035333     0.15D-03     0.25D-03     4     0      10.69     64.66    diag
   6    -1101.60007014      -0.00012295     0.78D-04     0.14D-03     5     0      10.73     75.39    diag
   7    -1101.60011206      -0.00004192     0.33D-04     0.10D-03     6     0      10.67     86.06    diag
   8    -1101.60011637      -0.00000431     0.12D-04     0.34D-04     7     0      10.69     96.75    fixocc
   9    -1101.60011678      -0.00000041     0.40D-05     0.12D-04     8     0      10.74    107.49    diag
  10    -1101.60011680      -0.00000002     0.83D-06     0.24D-05     9     0      10.68    118.17    diag/orth
  11    -1101.60011680      -0.00000000     0.34D-06     0.74D-06     9     0      10.77    128.94    diag
  12    -1101.60011680      -0.00000000     0.11D-06     0.22D-06     0     0      10.75    139.69    diag

 Final occupancy:  22  21

 !RHF STATE 1.1 Energy              -1101.600116803165
  RHF One-electron energy           -2785.447571259271
  RHF Two-electron energy            1043.898053556947
  RHF Kinetic energy                 1101.437830063024
  RHF Nuclear energy                  639.949400899159
  RHF Virial quotient                  -1.000147340808

 !RHF STATE 1.1 Dipole moment           0.00000000     0.00000000     0.50597773
 Dipole moment /Debye                   0.00000000     0.00000000     1.28606712

 Orbital energies:

           1.1          2.1          3.1          4.1          5.1          6.1          7.1          8.1          9.1         10.1
    -91.983167   -11.273943   -11.259421   -11.237062   -11.235637    -8.985147    -6.666147    -6.665605    -6.664816    -1.198813

          11.1         12.1         13.1         14.1         15.1         16.1         17.1         18.1         19.1         20.1
     -1.037425    -0.998747    -0.808862    -0.777316    -0.708261    -0.576262    -0.569773    -0.540551    -0.513989    -0.485557

          21.1         22.1         23.1         24.1
     -0.347244    -0.285472     0.140805     0.149479

           1.2          2.2          3.2          4.2          5.2          6.2          7.2          8.2          9.2         10.2
    -91.983167   -11.273067   -11.259421   -11.237063   -11.235643    -8.985149    -6.666149    -6.665605    -6.664815    -1.169427

          11.2         12.2         13.2         14.2         15.2         16.2         17.2         18.2         19.2         20.2
     -0.984079    -0.952008    -0.747717    -0.717831    -0.645192    -0.561388    -0.554275    -0.512092    -0.465996    -0.374066

          21.2         22.2         23.2
     -0.352368     0.078970     0.152763


 HOMO     22.1    -0.285472 =      -7.7681eV
 LUMO     22.2     0.078970 =       2.1489eV
 LUMO-HOMO         0.364442 =       9.9170eV

 Orbitals saved in record  2100.2


 **********************************************************************************************************************************
 DATASETS  * FILE   NREC   LENGTH (MB)   RECORD NAMES
              1      19     5614.62       500      610      700      900      950      970     1000      129      960     1100   
                                          VAR    BASINP    GEOM    SYMINP    ZMAT    AOBASIS   BASIS     P2S    ABASIS      S 
                                         1400     1410     1200     1210     1080     1600     1650     1300     1700   
                                           T        V       H0       H01     AOSYM     SMH    MOLCAS    ERIS     OPER   

              2       4        1.88       700     1000      520     2100   
                                         GEOM     BASIS   MCVARS     RHF  

 PROGRAMS   *        TOTAL    HF-SCF       INT
 CPU TIMES  *       329.93    139.70    190.09
 REAL TIME  *       591.53 SEC
 DISK USED  *        21.99 GB
 **********************************************************************************************************************************


 PROGRAM * MP4 (Closed-shell)     Authors: C. Hampel, H.-J. Werner, 1991, M. Deegan, P.J. Knowles, 1992


 Convergence thresholds:  THRVAR = 1.00D-08  THRDEN = 1.00D-06

 MP4(T)     terms to be evaluated (factor= 0.000)


 Number of core orbitals:          18 (   9   9 )
 Number of closed-shell orbitals:  25 (  13  12 )
 Number of external orbitals:     349 ( 174 175 )

 Molecular orbitals read from record     2100.2  Type=RHF/CANONICAL  

 Number of N-1 electron functions:              25
 Number of N-2 electron functions:             325
 Number of singly external CSFs:              4362
 Number of doubly external CSFs:          19035769
 Total number of CSFs:                    19040132

 Length of J-op  integral file:               0.00 MB
 Length of K-op  integral file:               5.34 MB

 Memory could be reduced to 617.77 Mwords without degradation in triples

 Integral transformation finished. Total CPU: 242.99 sec, npass=  1  Memory used: 319.00 MW

 Reference energy:                  -1101.60011680

                        CORR.ENERGY   TOTAL ENERGY   ENERGY CHANGE
 MP2:                   -1.61383898 -1103.21395578    -1.61383898

 SCS-MP2 correlation energy:           -1.57136330   (PS=  1.200000  PT=  0.333333)
 SCS-MP2 total energy:              -1103.17148010

 MP3(D):                -1.64320676 -1103.24332356    -0.02936778
 MP4(DQ):               -1.62979023 -1103.22990704     0.01341653
 MP4(SDQ):              -1.64479911 -1103.24491592    -0.01500888

 Norm of t1 vector:      0.10911510      S-energy:    -0.01500888      T1 diagnostic:  0.01091151

   CPU time for triples:   2120.42 sec for i =  1 - 16 / 25 (~  27.6 % done)
   CPU time for triples:   2096.90 sec for i = 17 - 20 / 25 (~  52.4 % done)
   CPU time for triples:   1984.96 sec for i = 21 - 23 / 25 (~  78.5 % done)
   CPU time for triples:   1519.50 sec for i = 24 - 25 / 25 (  100.0 % done)

 Total CPU time for triples:   7721.78 sec


 RESULTS
 =======

  Reference energy                  -1101.600116803164
  MP4(SDQ) singlet pair energy         -1.058220020739
  MP4(SDQ) triplet pair energy         -0.571570213909
  MP4(SDQ) correlation energy          -1.644799114069

  Triples contribution                 -0.108186047942
  Total correlation energy             -1.752985162012

  MP4(SDQ) total energy             -1103.244915917234
 !MP4(SDTQ) total energy            -1103.353101965176

 Timing summary (sec):

 STEP                 CPU(USER)    SYS     CPU(TOT)    WALL
 Transformation        244.43      7.18    251.61    255.81
 CCSD iterations       557.34      3.12    560.46    232.93
 Triples              7721.78    216.56   7938.34   8214.12

 Program statistics:

 Available memory in ccsd:               805303846
 Min. memory needed in ccsd:              43894383
 Max. memory used in ccsd:                61770614
 Max. memory used in cckext:              58169464 ( 1 integral passes)



 **********************************************************************************************************************************
 DATASETS  * FILE   NREC   LENGTH (MB)   RECORD NAMES
              1      20     7934.60       500      610      700      900      950      970     1000      129      960     1100   
                                          VAR    BASINP    GEOM    SYMINP    ZMAT    AOBASIS   BASIS     P2S    ABASIS      S 
                                         1400     1410     1200     1210     1080     1600     1650     1300     1700     1380   
                                           T        V       H0       H01     AOSYM     SMH    MOLCAS    ERIS     OPER     JKOP   

              2       4        1.88       700     1000      520     2100   
                                         GEOM     BASIS   MCVARS     RHF  

 PROGRAMS   *        TOTAL       MP4    HF-SCF       INT
 CPU TIMES  *      8523.19   8193.25    139.70    190.09
 REAL TIME  *      9294.76 SEC
 DISK USED  *        21.99 GB
 **********************************************************************************************************************************

 Dump information in style XML to xml output                                                                      

 Orbitals will not be exported.

 **********************************************************************************************************************************

 MP4/cc-pVTZ energy=  -1103.353101965176

             MP4          HF-SCF
  -1103.35310197  -1101.60011680
 **********************************************************************************************************************************
 Molpro calculation terminated
