
 Working directory              : /home/jovyan/scratch/molpro.ww1U7wiFLj/
 Global scratch directory       : /home/jovyan/scratch/molpro.ww1U7wiFLj/
 Wavefunction directory         : /home/jovyan/wfu/
 Main file repository           : /home/jovyan/scratch/molpro.ww1U7wiFLj/

 id        : cardiff

 Nodes                nprocs
 jupyter-c-2efrancisan    1
 GA implementation: MPI file
 GA implementation (serial work in mppx): MPI file

 Using customized tuning parameters: mindgm=1; mindgv=20; mindgc=4; mindgr=1; noblas=0; minvec=7
 default implementation of scratch files=df  


 Variables initialized (1031), CPU time= 0.00 sec
 
 
 
 geometry={
 6
  C 0.000000 0.509558 0.000000
  H 0.037758 1.595479 0.000000
  O -1.099586 -0.147769 0.000000
  H 1.969129 -0.087220 0.000000
  H -0.131827 -1.064473 0.000000
  N 0.988804 -0.331283 0.000000
 }
 basis=cc-pVDZ
 angstrom
 
 
 hf; ccsd
 
 
 
 {put,xml;noorbitals,nobasis}
 Commands initialized (841), CPU time= 0.01 sec, 704 directives.
 Default parameters read. Elapsed time= 0.08 sec

 Checking input...
 Passed
1


                                         ***  PROGRAM SYSTEM MOLPRO  ***
                                       Copyright, TTI GmbH Stuttgart, 2015
                                    Version 2023.1 linked Mon Jun  5 13:27:10 2023


 **********************************************************************************************************************************
 LABEL *                                                                                                                                                                 
  (16 PROC) 64 bit serial version                                                        DATE: 02-Aug-23          TIME: 15:48:26  
 **********************************************************************************************************************************

 SHA1:             9738a14712571edd23541b6d7c4f3a3d766f8287
 **********************************************************************************************************************************

 Memory per process:       805 MW
 Total memory per node:   1074 MW
 Total GA space:           268 MW

 GA preallocation disabled
 GA check enabled

 Geometry recognized as XYZ


 Variable memory set to 805.3 MW

 SETTING BASIS          =    CC-PVDZ


 Recomputing integrals since basis changed


 Using spherical harmonics

 Library entry C      S cc-pVDZ              selected for orbital group  1
 Library entry C      P cc-pVDZ              selected for orbital group  1
 Library entry C      D cc-pVDZ              selected for orbital group  1
 Library entry H      S cc-pVDZ              selected for orbital group  2
 Library entry H      P cc-pVDZ              selected for orbital group  2
 Library entry O      S cc-pVDZ              selected for orbital group  3
 Library entry O      P cc-pVDZ              selected for orbital group  3
 Library entry O      D cc-pVDZ              selected for orbital group  3
 Library entry N      S cc-pVDZ              selected for orbital group  5
 Library entry N      P cc-pVDZ              selected for orbital group  5
 Library entry N      D cc-pVDZ              selected for orbital group  5


 PROGRAM * SEWARD (Integral evaluation for generally contracted gaussian basis sets)     Author: Roland Lindh, 1990

 Geometry written to block  1 of record 700


 Point group  Cs  



 ATOMIC COORDINATES

 NR  ATOM    CHARGE       X              Y              Z

   1  C       6.00    0.000000000    0.962925065    0.000000000
   2  H       1.00    0.071352279    3.015018348    0.000000000
   3  O       8.00   -2.077916390   -0.279242940    0.000000000
   4  H       1.00    3.721114514   -0.164821913    0.000000000
   5  H       1.00   -0.249116926   -2.011562437    0.000000000
   6  N       7.00    1.868568751   -0.626034140    0.000000000

 Bond lengths in Bohr (Angstrom)

 1-2  2.053333385  1-3  2.420891959  1-6  2.452822972  3-5  2.519015348  4-6  1.909094687
     ( 1.086577234)     ( 1.281080855)     ( 1.297978019)     ( 1.333005516)     ( 1.010249402)

 5-6  2.530668151
     ( 1.339171914)

 Bond angles

  1-3-5   74.31885873   1-6-4  125.64321780   1-6-5   73.57189641   2-1-3  122.86217045

  2-1-6  128.38516423   3-1-6  108.75266532   3-5-6  103.35657954   4-6-5  160.78488579

 NUCLEAR CHARGE:                   24
 NUMBER OF PRIMITIVE AOS:         102
 NUMBER OF SYMMETRY AOS:           99
 NUMBER OF CONTRACTIONS:           57   (   42A'  +   15A"  )
 NUMBER OF INNER CORE ORBITALS:     0   (    0A'  +    0A"  )
 NUMBER OF OUTER CORE ORBITALS:     3   (    3A'  +    0A"  )
 NUMBER OF VALENCE ORBITALS:       15   (   12A'  +    3A"  )


 NUCLEAR REPULSION ENERGY   72.94036840

 Eigenvalues of metric

         1 0.514E-02 0.132E-01 0.166E-01 0.281E-01 0.339E-01 0.394E-01 0.518E-01 0.659E-01
         2 0.110E+00 0.169E+00 0.192E+00 0.374E+00 0.452E+00 0.523E+00 0.576E+00 0.793E+00


 Contracted 2-electron integrals neglected if value below      1.0D-11
 AO integral compression algorithm  1   Integral accuracy      1.0D-11

     4.194 MB (compressed) written to integral file ( 63.1%)


 NUMBER OF SORTED TWO-ELECTRON INTEGRALS:     740496.     BUFFER LENGTH:  32768
 NUMBER OF SEGMENTS:   1  SEGMENT LENGTH:     740496      RECORD LENGTH: 524288

 Memory used in sort:       1.30 MW

 SORT1 READ      875140. AND WROTE      732819. INTEGRALS IN      3 RECORDS. CPU TIME:     0.01 SEC, REAL TIME:     0.14 SEC
 SORT2 READ      732819. AND WROTE      740496. INTEGRALS IN     16 RECORDS. CPU TIME:     0.04 SEC, REAL TIME:     0.04 SEC

 FILE SIZES:   FILE 1:    34.4 MBYTE,  FILE 4:    12.6 MBYTE,   TOTAL:     47.0 MBYTE

 OPERATOR DM      FOR CENTER  0  COORDINATES:    0.000000    0.000000    0.000000


 **********************************************************************************************************************************
 DATASETS  * FILE   NREC   LENGTH (MB)   RECORD NAMES
              1      19       32.04       500      610      700      900      950      970     1000      129      960     1100   
                                          VAR    BASINP    GEOM    SYMINP    ZMAT    AOBASIS   BASIS     P2S    ABASIS      S 
                                         1400     1410     1200     1210     1080     1600     1650     1300     1700   
                                           T        V       H0       H01     AOSYM     SMH    MOLCAS    ERIS     OPER   

 PROGRAMS   *        TOTAL       INT
 CPU TIMES  *         0.84      0.70
 REAL TIME  *         2.35 SEC
 DISK USED  *        45.25 MB
 **********************************************************************************************************************************


 Program * Restricted Hartree-Fock

 Orbital guess generated from atomic densities. Full valence occupancy:   15   3

 Initial occupancy:  10   2

 NELEC=   24   SYM=1   MS2= 0   THRE=1.0D-08   THRD=3.2D-06   THRG=3.2D-06  HFMA2=F  DIIS_START=2   DIIS_MAX=10   DIIS_INCORE=F

 Level shifts:    0.00 (CLOSED)    0.00 (OPEN)    0.30 (GAP_MIN)

 ITER           ETOT              DE          GRAD        DDIFF     DIIS  NEXP   TIME(IT)  TIME(TOT)  DIAG
   1     -168.79384014    -168.79384014     0.00D+00     0.20D+00     0     0       0.01      0.02    start
   2     -168.83035492      -0.03651478     0.14D-01     0.31D-01     1     0       0.00      0.02    diag
   3     -168.85058693      -0.02023201     0.89D-02     0.12D-01     2     0       0.01      0.03    diag
   4     -168.85139220      -0.00080527     0.15D-02     0.27D-02     3     0       0.01      0.04    diag
   5     -168.85154998      -0.00015778     0.65D-03     0.12D-02     4     0       0.01      0.05    diag
   6     -168.85157074      -0.00002076     0.15D-03     0.39D-03     5     0       0.00      0.05    diag
   7     -168.85157344      -0.00000270     0.52D-04     0.17D-03     6     0       0.01      0.06    diag
   8     -168.85157357      -0.00000013     0.11D-04     0.35D-04     7     0       0.01      0.07    fixocc
   9     -168.85157359      -0.00000001     0.36D-05     0.95D-05     8     0       0.00      0.07    diag
  10     -168.85157359      -0.00000000     0.16D-05     0.65D-05     9     0       0.01      0.08    diag/orth
  11     -168.85157359      -0.00000000     0.61D-06     0.27D-05     9     0       0.01      0.09    diag
  12     -168.85157359      -0.00000000     0.16D-06     0.35D-06     0     0       0.01      0.10    diag

 Final occupancy:  10   2

 !RHF STATE 1.1 Energy               -168.851573591381
  RHF One-electron energy            -375.068473625245
  RHF Two-electron energy             133.276531636003
  RHF Kinetic energy                  168.668290494717
  RHF Nuclear energy                   72.940368397861
  RHF Virial quotient                  -1.001086648214

 !RHF STATE 1.1 Dipole moment           1.01935802     0.62139586     0.00000000
 Dipole moment /Debye                   2.59094965     1.57943073     0.00000000

 Orbital energies:

           1.1          2.1          3.1          4.1          5.1          6.1          7.1          8.1          9.1         10.1
    -20.548091   -15.565965   -11.364638    -1.411149    -1.179171    -0.832673    -0.776188    -0.618470    -0.532062    -0.451015

          11.1         12.1
      0.187311     0.198375

           1.2          2.2          3.2          4.2
     -0.580234    -0.398050     0.175381     0.667110


 HOMO      2.2    -0.398050 =     -10.8315eV
 LUMO      3.2     0.175381 =       4.7724eV
 LUMO-HOMO         0.573431 =      15.6038eV

 Orbitals saved in record  2100.2


 **********************************************************************************************************************************
 DATASETS  * FILE   NREC   LENGTH (MB)   RECORD NAMES
              1      19       32.04       500      610      700      900      950      970     1000      129      960     1100   
                                          VAR    BASINP    GEOM    SYMINP    ZMAT    AOBASIS   BASIS     P2S    ABASIS      S 
                                         1400     1410     1200     1210     1080     1600     1650     1300     1700   
                                           T        V       H0       H01     AOSYM     SMH    MOLCAS    ERIS     OPER   

              2       4        0.49       700     1000      520     2100   
                                         GEOM     BASIS   MCVARS     RHF  

 PROGRAMS   *        TOTAL    HF-SCF       INT
 CPU TIMES  *         0.94      0.11      0.70
 REAL TIME  *         2.49 SEC
 DISK USED  *        45.25 MB
 **********************************************************************************************************************************


 PROGRAM * CCSD (Closed-shell coupled cluster)     Authors: C. Hampel, H.-J. Werner, 1991, M. Deegan, P.J. Knowles, 1992


 Convergence thresholds:  THRVAR = 1.00D-08  THRDEN = 1.00D-06

 Number of core orbitals:           3 (   3   0 )
 Number of closed-shell orbitals:   9 (   7   2 )
 Number of external orbitals:      45 (  32  13 )

 Molecular orbitals read from record     2100.2  Type=RHF/CANONICAL  

 Number of N-1 electron functions:               9
 Number of N-2 electron functions:              45
 Number of singly external CSFs:               250
 Number of doubly external CSFs:             43465
 Total number of CSFs:                       43716

 Length of J-op  integral file:               0.00 MB
 Length of K-op  integral file:               0.20 MB
 Length of 3-ext integral record:             0.00 MB

 Integral transformation finished. Total CPU:   0.03 sec, npass=  1  Memory used:   0.48 MW

 Reference energy:                   -168.85157359

 MP2 singlet pair energy:              -0.30383711
 MP2 triplet pair energy:              -0.20339205
 MP2 correlation energy:               -0.50722915
 MP2 total energy:                   -169.35880275

 SCS-MP2 correlation energy:           -0.49115958   (PS=  1.200000  PT=  0.333333)
 SCS-MP2 total energy:               -169.34273317

 ITER.      SQ.NORM     CORR.ENERGY   TOTAL ENERGY   ENERGY CHANGE        DEN1      VAR(S)    VAR(P)  DIIS     TIME  TIME/IT
   1      1.15956671    -0.51855565  -169.37012924    -0.01132649     0.00593436  0.63D-02  0.34D-02  1  1     1.37     0.08
   2      1.17406672    -0.51984613  -169.37141972    -0.00129048    -0.01377519  0.21D-03  0.64D-03  2  2     1.44     0.08
   3      1.18312667    -0.52050075  -169.37207434    -0.00065462    -0.00372732  0.16D-03  0.32D-04  3  3     1.51     0.08
   4      1.18703016    -0.52038680  -169.37196039     0.00011396    -0.00114067  0.16D-04  0.65D-05  4  4     1.58     0.08
   5      1.18868156    -0.52033522  -169.37190881     0.00005158    -0.00033270  0.15D-05  0.73D-06  5  5     1.65     0.08
   6      1.18902967    -0.52031334  -169.37188693     0.00002188    -0.00003441  0.12D-06  0.83D-07  6  6     1.72     0.08
   7      1.18910631    -0.52030747  -169.37188106     0.00000587    -0.00000492  0.93D-08  0.12D-07  6  2     1.79     0.08
   8      1.18911106    -0.52030780  -169.37188140    -0.00000034     0.00000152  0.27D-08  0.11D-08  6  1     1.86     0.08
   9      1.18911285    -0.52030745  -169.37188104     0.00000036     0.00000038  0.24D-09  0.16D-09  6  3     1.93     0.08

 Norm of t1 vector:      0.12446708      S-energy:     0.00000001      T1 diagnostic:  0.02074451
                                                                       D1 diagnostic:  0.07095640
                                                                       D2 diagnostic:  0.16559234 (external, symmetry=2)

 Singles amplitudes (print threshold =  0.500E-01):

         I         SYM. A    A   T(IA)

         8         2         1      0.06852256

 Doubles amplitudes (print threshold =  0.500E-01):

         I         J         SYM. A    SYM. B    A         B      T(IJ, AB)

         8         8         2         2         1         1     -0.05348709
         9         9         2         2         1         1     -0.07398570


 RESULTS
 =======

  Reference energy                   -168.851573591381
  CCSD singlet pair energy             -0.342251272036
  CCSD triplet pair energy             -0.178056184893
  CCSD correlation energy              -0.520307445437

 !CCSD total energy                  -169.371881036818

 Timing summary (sec):

 STEP                 CPU(USER)    SYS     CPU(TOT)    WALL
 Transformation          0.03      0.01      0.04      0.33
 CCSD iterations         1.91      0.07      1.98      0.78

 Program statistics:

 Available memory in ccsd:               805306034
 Min. memory needed in ccsd:                147835
 Max. memory used in ccsd:                  180273
 Max. memory used in cckext:                231743 ( 9 integral passes)



 **********************************************************************************************************************************
 DATASETS  * FILE   NREC   LENGTH (MB)   RECORD NAMES
              1      20       34.66       500      610      700      900      950      970     1000      129      960     1100   
                                          VAR    BASINP    GEOM    SYMINP    ZMAT    AOBASIS   BASIS     P2S    ABASIS      S 
                                         1400     1410     1200     1210     1080     1600     1650     1300     1700     1380   
                                           T        V       H0       H01     AOSYM     SMH    MOLCAS    ERIS     OPER     JKOP   

              2       4        0.49       700     1000      520     2100   
                                         GEOM     BASIS   MCVARS     RHF  

 PROGRAMS   *        TOTAL      CCSD    HF-SCF       INT
 CPU TIMES  *         1.65      0.71      0.11      0.70
 REAL TIME  *         3.65 SEC
 DISK USED  *        45.25 MB
 **********************************************************************************************************************************

 Dump information in style XML to xml output                                                                      

 Orbitals will not be exported.

 **********************************************************************************************************************************

 CCSD/cc-pVDZ energy=   -169.371881036818

            CCSD          HF-SCF
   -169.37188104   -168.85157359
 **********************************************************************************************************************************
 Molpro calculation terminated
