
 Working directory              : /home/jovyan/scratch/molpro.HyAj4fh9Cj/
 Global scratch directory       : /home/jovyan/scratch/molpro.HyAj4fh9Cj/
 Wavefunction directory         : /home/jovyan/wfu/
 Main file repository           : /home/jovyan/scratch/molpro.HyAj4fh9Cj/

 id        : cardiff

 Nodes                nprocs
 jupyter-c-2efrancisan    1
 GA implementation: MPI file
 GA implementation (serial work in mppx): MPI file

 Using customized tuning parameters: mindgm=1; mindgv=20; mindgc=4; mindgr=1; noblas=0; minvec=7
 default implementation of scratch files=df  


 Variables initialized (1031), CPU time= 0.00 sec
 
 
 
 geometry={
 7
  C    -0.2143504    0.9533214    0.0000000
  N    -0.1118448   -0.5782992    0.0000000
  H     0.8108410   -1.0328730    0.0000000
  H    -0.6149312   -0.9202851    0.8074929
  H    -0.6149312   -0.9202851   -0.8074929
  H     0.3726083    1.2492105    0.8729349
  H     0.3726083    1.2492105   -0.8729349
 }
 basis=cc-pVDZ
 angstrom
 
 
 hf; ccsd
 
 
 
 {put,xml;noorbitals,nobasis}
 Commands initialized (841), CPU time= 0.01 sec, 704 directives.
 Default parameters read. Elapsed time= 0.08 sec

 Checking input...
 Passed
1


                                         ***  PROGRAM SYSTEM MOLPRO  ***
                                       Copyright, TTI GmbH Stuttgart, 2015
                                    Version 2023.1 linked Mon Jun  5 13:27:10 2023


 **********************************************************************************************************************************
 LABEL *                                                                                                                                                                 
  (16 PROC) 64 bit serial version                                                        DATE: 02-Aug-23          TIME: 15:45:20  
 **********************************************************************************************************************************

 SHA1:             9738a14712571edd23541b6d7c4f3a3d766f8287
 **********************************************************************************************************************************

 Memory per process:       805 MW
 Total memory per node:   1074 MW
 Total GA space:           268 MW

 GA preallocation disabled
 GA check enabled

 Geometry recognized as XYZ


 Variable memory set to 805.3 MW

 SETTING BASIS          =    CC-PVDZ


 Recomputing integrals since basis changed


 Using spherical harmonics

 Library entry C      S cc-pVDZ              selected for orbital group  1
 Library entry C      P cc-pVDZ              selected for orbital group  1
 Library entry C      D cc-pVDZ              selected for orbital group  1
 Library entry N      S cc-pVDZ              selected for orbital group  2
 Library entry N      P cc-pVDZ              selected for orbital group  2
 Library entry N      D cc-pVDZ              selected for orbital group  2
 Library entry H      S cc-pVDZ              selected for orbital group  3
 Library entry H      P cc-pVDZ              selected for orbital group  3


 PROGRAM * SEWARD (Integral evaluation for generally contracted gaussian basis sets)     Author: Roland Lindh, 1990

 Geometry written to block  1 of record 700


 Point group  Cs  



 ATOMIC COORDINATES

 NR  ATOM    CHARGE       X              Y              Z

   1  C       6.00   -0.405063551    1.801516355    0.000000000
   2  N       7.00   -0.211356040   -1.092827106    0.000000000
   3  H       1.00    1.532267421   -1.951847092    0.000000000
   4  H       1.00   -1.162051553   -1.739086796    1.525940429
   5  H       1.00   -1.162051553   -1.739086796   -1.525940429
   6  H       1.00    0.704127639    2.360665717    1.649607886
   7  H       1.00    0.704127639    2.360665717   -1.649607886

 Bond lengths in Bohr (Angstrom)

 1-2  2.900818276  1-6  2.064984087  1-7  2.064984087  2-3  1.943743324  2-4  1.910488874
     ( 1.535046924)     ( 1.092742520)     ( 1.092742520)     ( 1.028584671)     ( 1.010987174)

 2-5  1.910488874
     ( 1.010987174)

 Bond angles

  1-2-3  120.05667508   1-2-4  107.71514152   1-2-5  107.71514152   2-1-6  103.55057035

  2-1-7  103.55057035   3-2-4  107.27096932   3-2-5  107.27096932   4-2-5  106.01556643

  6-1-7  106.04042148

 NUCLEAR CHARGE:                   18
 NUMBER OF PRIMITIVE AOS:          89
 NUMBER OF SYMMETRY AOS:           87
 NUMBER OF CONTRACTIONS:           53   (   34A'  +   19A"  )
 NUMBER OF INNER CORE ORBITALS:     0   (    0A'  +    0A"  )
 NUMBER OF OUTER CORE ORBITALS:     2   (    2A'  +    0A"  )
 NUMBER OF VALENCE ORBITALS:       13   (    9A'  +    4A"  )


 NUCLEAR REPULSION ENERGY   41.75965206

 Eigenvalues of metric

         1 0.722E-02 0.167E-01 0.331E-01 0.385E-01 0.456E-01 0.549E-01 0.704E-01 0.957E-01
         2 0.337E-01 0.370E-01 0.529E-01 0.717E-01 0.117E+00 0.155E+00 0.378E+00 0.432E+00


 Contracted 2-electron integrals neglected if value below      1.0D-11
 AO integral compression algorithm  1   Integral accuracy      1.0D-11

     3.146 MB (compressed) written to integral file ( 63.4%)


 NUMBER OF SORTED TWO-ELECTRON INTEGRALS:     534605.     BUFFER LENGTH:  32768
 NUMBER OF SEGMENTS:   1  SEGMENT LENGTH:     534605      RECORD LENGTH: 524288

 Memory used in sort:       1.09 MW

 SORT1 READ      657868. AND WROTE      528661. INTEGRALS IN      2 RECORDS. CPU TIME:     0.01 SEC, REAL TIME:     0.12 SEC
 SORT2 READ      528661. AND WROTE      534605. INTEGRALS IN     12 RECORDS. CPU TIME:     0.03 SEC, REAL TIME:     0.03 SEC

 FILE SIZES:   FILE 1:    33.3 MBYTE,  FILE 4:     8.5 MBYTE,   TOTAL:     41.8 MBYTE

 OPERATOR DM      FOR CENTER  0  COORDINATES:    0.000000    0.000000    0.000000


 **********************************************************************************************************************************
 DATASETS  * FILE   NREC   LENGTH (MB)   RECORD NAMES
              1      19       31.14       500      610      700      900      950      970     1000      129      960     1100   
                                          VAR    BASINP    GEOM    SYMINP    ZMAT    AOBASIS   BASIS     P2S    ABASIS      S 
                                         1400     1410     1200     1210     1080     1600     1650     1300     1700   
                                           T        V       H0       H01     AOSYM     SMH    MOLCAS    ERIS     OPER   

 PROGRAMS   *        TOTAL       INT
 CPU TIMES  *         0.66      0.53
 REAL TIME  *         1.95 SEC
 DISK USED  *        40.25 MB
 **********************************************************************************************************************************


 Program * Restricted Hartree-Fock

 Orbital guess generated from atomic densities. Full valence occupancy:   11   4

 Initial occupancy:   7   2

 NELEC=   18   SYM=1   MS2= 0   THRE=1.0D-08   THRD=3.2D-06   THRG=3.2D-06  HFMA2=F  DIIS_START=2   DIIS_MAX=10   DIIS_INCORE=F

 Level shifts:    0.00 (CLOSED)    0.00 (OPEN)    0.30 (GAP_MIN)

 ITER           ETOT              DE          GRAD        DDIFF     DIIS  NEXP   TIME(IT)  TIME(TOT)  DIAG
   1      -95.03953018     -95.03953018     0.00D+00     0.19D+00     0     0       0.01      0.01    start
   2      -95.10115079      -0.06162060     0.16D-01     0.33D-01     1     0       0.00      0.01    diag
   3      -95.11156129      -0.01041050     0.68D-02     0.12D-01     2     0       0.01      0.02    diag
   4      -95.11239275      -0.00083146     0.14D-02     0.31D-02     3     0       0.00      0.02    diag
   5      -95.11247568      -0.00008293     0.40D-03     0.92D-03     4     0       0.00      0.02    diag
   6      -95.11248818      -0.00001250     0.15D-03     0.41D-03     5     0       0.01      0.03    diag
   7      -95.11248977      -0.00000159     0.45D-04     0.14D-03     6     0       0.00      0.03    diag
   8      -95.11248991      -0.00000015     0.12D-04     0.43D-04     7     0       0.01      0.04    fixocc
   9      -95.11248993      -0.00000001     0.31D-05     0.12D-04     8     0       0.01      0.05    diag
  10      -95.11248993      -0.00000000     0.79D-06     0.34D-05     9     0       0.00      0.05    diag/orth
  11      -95.11248993      -0.00000000     0.16D-06     0.72D-06     9     0       0.01      0.06    diag
  12      -95.11248993      -0.00000000     0.43D-07     0.16D-06     0     0       0.00      0.06    diag

 Final occupancy:   7   2

 !RHF STATE 1.1 Energy                -95.112489926166
  RHF One-electron energy            -210.413473531640
  RHF Two-electron energy              73.541331547464
  RHF Kinetic energy                   95.045646464088
  RHF Nuclear energy                   41.759652058010
  RHF Virial quotient                  -1.000703277473

 !RHF STATE 1.1 Dipole moment           0.60202658    -2.14451714     0.00000000
 Dipole moment /Debye                   1.53019895    -5.45081887     0.00000000

 Orbital energies:

           1.1          2.1          3.1          4.1          5.1          6.1          7.1          8.1          9.1
    -15.666397   -11.152619    -1.267494    -0.846896    -0.727963    -0.552135    -0.255934     0.140642     0.213133

           1.2          2.2          3.2          4.2
     -0.733673    -0.462295     0.217202     0.313939


 HOMO      7.1    -0.255934 =      -6.9643eV
 LUMO      8.1     0.140642 =       3.8271eV
 LUMO-HOMO         0.396576 =      10.7914eV

 Orbitals saved in record  2100.2


 **********************************************************************************************************************************
 DATASETS  * FILE   NREC   LENGTH (MB)   RECORD NAMES
              1      19       31.14       500      610      700      900      950      970     1000      129      960     1100   
                                          VAR    BASINP    GEOM    SYMINP    ZMAT    AOBASIS   BASIS     P2S    ABASIS      S 
                                         1400     1410     1200     1210     1080     1600     1650     1300     1700   
                                           T        V       H0       H01     AOSYM     SMH    MOLCAS    ERIS     OPER   

              2       4        0.50       700     1000      520     2100   
                                         GEOM     BASIS   MCVARS     RHF  

 PROGRAMS   *        TOTAL    HF-SCF       INT
 CPU TIMES  *         0.73      0.07      0.53
 REAL TIME  *         2.05 SEC
 DISK USED  *        40.25 MB
 **********************************************************************************************************************************


 PROGRAM * CCSD (Closed-shell coupled cluster)     Authors: C. Hampel, H.-J. Werner, 1991, M. Deegan, P.J. Knowles, 1992


 Convergence thresholds:  THRVAR = 1.00D-08  THRDEN = 1.00D-06

 Number of core orbitals:           2 (   2   0 )
 Number of closed-shell orbitals:   7 (   5   2 )
 Number of external orbitals:      44 (  27  17 )

 Molecular orbitals read from record     2100.2  Type=RHF/CANONICAL  

 Number of N-1 electron functions:               7
 Number of N-2 electron functions:              28
 Number of singly external CSFs:               169
 Number of doubly external CSFs:             24095
 Total number of CSFs:                       24265

 Length of J-op  integral file:               0.00 MB
 Length of K-op  integral file:               0.17 MB
 Length of 3-ext integral record:             0.00 MB

 Integral transformation finished. Total CPU:   0.01 sec, npass=  1  Memory used:   0.29 MW

 Reference energy:                    -95.11248993

 MP2 singlet pair energy:              -0.21576154
 MP2 triplet pair energy:              -0.11081173
 MP2 correlation energy:               -0.32657327
 MP2 total energy:                    -95.43906319

 SCS-MP2 correlation energy:           -0.32786337   (PS=  1.200000  PT=  0.333333)
 SCS-MP2 total energy:                -95.44035329

 ITER.      SQ.NORM     CORR.ENERGY   TOTAL ENERGY   ENERGY CHANGE        DEN1      VAR(S)    VAR(P)  DIIS     TIME  TIME/IT
   1      1.12031199    -0.35522478   -95.46771470    -0.02865151    -0.01958156  0.77D-03  0.19D-02  1  1     1.12     0.04
   2      1.13069077    -0.35759942   -95.47008934    -0.00237464    -0.01011904  0.26D-04  0.15D-03  2  2     1.16     0.04
   3      1.13291103    -0.35775129   -95.47024122    -0.00015188    -0.00118644  0.16D-04  0.98D-05  3  3     1.19     0.04
   4      1.13363107    -0.35778463   -95.47027456    -0.00003334    -0.00024883  0.38D-05  0.14D-05  4  4     1.22     0.04
   5      1.13388734    -0.35778816   -95.47027809    -0.00000353    -0.00005584  0.19D-05  0.28D-06  5  5     1.25     0.04
   6      1.13404697    -0.35778848   -95.47027841    -0.00000032    -0.00001506  0.57D-06  0.87D-07  6  6     1.28     0.04
   7      1.13417493    -0.35778861   -95.47027854    -0.00000013    -0.00000927  0.79D-07  0.16D-07  6  1     1.31     0.04
   8      1.13421759    -0.35778870   -95.47027863    -0.00000009     0.00000069  0.12D-07  0.23D-08  6  2     1.35     0.04
   9      1.13422795    -0.35778864   -95.47027857     0.00000006    -0.00000050  0.28D-08  0.42D-09  6  3     1.38     0.04

 Norm of t1 vector:      0.04757008      S-energy:     0.00000042      T1 diagnostic:  0.00898990
                                                                       D1 diagnostic:  0.02340268
                                                                       D2 diagnostic:  0.14418842 (internal)


 RESULTS
 =======

  Reference energy                    -95.112489926166
  CCSD singlet pair energy             -0.255458478593
  CCSD triplet pair energy             -0.102330588040
  CCSD correlation energy              -0.357788641820

 !CCSD total energy                   -95.470278567987

 Timing summary (sec):

 STEP                 CPU(USER)    SYS     CPU(TOT)    WALL
 Transformation          0.02      0.01      0.03      0.15
 CCSD iterations         1.37      0.05      1.42      0.37

 Program statistics:

 Available memory in ccsd:               805306165
 Min. memory needed in ccsd:                 87589
 Max. memory used in ccsd:                  105093
 Max. memory used in cckext:                145454 ( 9 integral passes)



 **********************************************************************************************************************************
 DATASETS  * FILE   NREC   LENGTH (MB)   RECORD NAMES
              1      20       32.80       500      610      700      900      950      970     1000      129      960     1100   
                                          VAR    BASINP    GEOM    SYMINP    ZMAT    AOBASIS   BASIS     P2S    ABASIS      S 
                                         1400     1410     1200     1210     1080     1600     1650     1300     1700     1380   
                                           T        V       H0       H01     AOSYM     SMH    MOLCAS    ERIS     OPER     JKOP   

              2       4        0.50       700     1000      520     2100   
                                         GEOM     BASIS   MCVARS     RHF  

 PROGRAMS   *        TOTAL      CCSD    HF-SCF       INT
 CPU TIMES  *         1.08      0.35      0.07      0.53
 REAL TIME  *         2.62 SEC
 DISK USED  *        40.25 MB
 **********************************************************************************************************************************

 Dump information in style XML to xml output                                                                      

 Orbitals will not be exported.

 **********************************************************************************************************************************

 CCSD/cc-pVDZ energy=    -95.470278567987

            CCSD          HF-SCF
    -95.47027857    -95.11248993
 **********************************************************************************************************************************
 Molpro calculation terminated
