
 Working directory              : /home/jovyan/scratch/molpro.JREZHe4MUo/
 Global scratch directory       : /home/jovyan/scratch/molpro.JREZHe4MUo/
 Wavefunction directory         : /home/jovyan/wfu/
 Main file repository           : /home/jovyan/scratch/molpro.JREZHe4MUo/

 id        : cardiff

 Nodes                nprocs
 jupyter-c-2efrancisan    1
 GA implementation: MPI file
 GA implementation (serial work in mppx): MPI file

 Using customized tuning parameters: mindgm=1; mindgv=20; mindgc=4; mindgr=1; noblas=0; minvec=7
 default implementation of scratch files=df  


 Variables initialized (1031), CPU time= 0.00 sec
 
 
 
 geometry={
 6
  3HF (cyc) (Full point group C3h)
  H 0.000000 1.164150 0.000000
  H 1.008183 -0.582075 0.000000
  H -1.008183 -0.582075 0.000000
  F -0.527520 -1.395778 0.000000
  F -0.945019 1.154735 0.000000
  F 1.472540 0.241043 0.000000
 }
 basis=cc-pVTZ
 angstrom
 
 
 hf; ccsd
 
 
 
 {put,xml;noorbitals,nobasis}
 Commands initialized (841), CPU time= 0.01 sec, 704 directives.
 Default parameters read. Elapsed time= 0.08 sec

 Checking input...
 Passed
1


                                         ***  PROGRAM SYSTEM MOLPRO  ***
                                       Copyright, TTI GmbH Stuttgart, 2015
                                    Version 2023.1 linked Mon Jun  5 13:27:10 2023


 **********************************************************************************************************************************
 LABEL *                                                                                                                                                                 
  (16 PROC) 64 bit serial version                                                        DATE: 03-Aug-23          TIME: 13:47:06  
 **********************************************************************************************************************************

 SHA1:             9738a14712571edd23541b6d7c4f3a3d766f8287
 **********************************************************************************************************************************

 Memory per process:       805 MW
 Total memory per node:   1074 MW
 Total GA space:           268 MW

 GA preallocation disabled
 GA check enabled

 Geometry recognized as XYZ


 Variable memory set to 805.3 MW

 SETTING BASIS          =    CC-PVTZ


 Recomputing integrals since basis changed


 Using spherical harmonics

 Library entry H      S cc-pVTZ              selected for orbital group  1
 Library entry H      P cc-pVTZ              selected for orbital group  1
 Library entry H      D cc-pVTZ              selected for orbital group  1
 Library entry F      S cc-pVTZ              selected for orbital group  2
 Library entry F      P cc-pVTZ              selected for orbital group  2
 Library entry F      D cc-pVTZ              selected for orbital group  2
 Library entry F      F cc-pVTZ              selected for orbital group  2


 PROGRAM * SEWARD (Integral evaluation for generally contracted gaussian basis sets)     Author: Roland Lindh, 1990

 Geometry written to block  1 of record 700


 Point group  Cs  



 ATOMIC COORDINATES

 NR  ATOM    CHARGE       X              Y              Z

   1  H       1.00    0.000000000    2.199924668    0.000000000
   2  H       1.00    1.905189754   -1.099962334    0.000000000
   3  H       1.00   -1.905189754   -1.099962334    0.000000000
   4  F       9.00   -0.996868325   -2.637638151    0.000000000
   5  F       9.00   -1.785827093    2.182132897    0.000000000
   6  F       9.00    2.782697308    0.455505254    0.000000000

 Bond lengths in Bohr (Angstrom)

 1-5  1.785915718  2-6  1.785916831  3-4  1.785915657
     ( 0.945065899)     ( 0.945066487)     ( 0.945065866)

 NUCLEAR CHARGE:                   30
 NUMBER OF PRIMITIVE AOS:         192
 NUMBER OF SYMMETRY AOS:          174
 NUMBER OF CONTRACTIONS:          132   (   90A'  +   42A"  )
 NUMBER OF INNER CORE ORBITALS:     0   (    0A'  +    0A"  )
 NUMBER OF OUTER CORE ORBITALS:     3   (    3A'  +    0A"  )
 NUMBER OF VALENCE ORBITALS:       15   (   12A'  +    3A"  )


 NUCLEAR REPULSION ENERGY   79.34823460


 Eigenvalues of metric

         1 0.324E-02 0.324E-02 0.350E-02 0.792E-02 0.872E-02 0.872E-02 0.105E-01 0.105E-01
         2 0.495E-01 0.495E-01 0.501E-01 0.119E+00 0.145E+00 0.145E+00 0.254E+00 0.280E+00


 Contracted 2-electron integrals neglected if value below      1.0D-11
 AO integral compression algorithm  1   Integral accuracy      1.0D-11

     76.022 MB (compressed) written to integral file ( 41.3%)


 NUMBER OF SORTED TWO-ELECTRON INTEGRALS:   19888071.     BUFFER LENGTH:  32768
 NUMBER OF SEGMENTS:   2  SEGMENT LENGTH:   15993726      RECORD LENGTH: 524288

 Memory used in sort:      16.55 MW

 SORT1 READ    23019799. AND WROTE    17368231. INTEGRALS IN     50 RECORDS. CPU TIME:     0.33 SEC, REAL TIME:     0.51 SEC
 SORT2 READ    17368231. AND WROTE    19888071. INTEGRALS IN    290 RECORDS. CPU TIME:     0.48 SEC, REAL TIME:     0.56 SEC

 FILE SIZES:   FILE 1:   106.6 MBYTE,  FILE 4:   209.8 MBYTE,   TOTAL:    316.4 MBYTE

 OPERATOR DM      FOR CENTER  0  COORDINATES:    0.000000    0.000000    0.000000


 **********************************************************************************************************************************
 DATASETS  * FILE   NREC   LENGTH (MB)   RECORD NAMES
              1      19       93.00       500      610      700      900      950      970     1000      129      960     1100   
                                          VAR    BASINP    GEOM    SYMINP    ZMAT    AOBASIS   BASIS     P2S    ABASIS      S 
                                         1400     1410     1200     1210     1080     1600     1650     1300     1700   
                                           T        V       H0       H01     AOSYM     SMH    MOLCAS    ERIS     OPER   

 PROGRAMS   *        TOTAL       INT
 CPU TIMES  *         4.00      3.87
 REAL TIME  *         5.28 SEC
 DISK USED  *       302.15 MB
 **********************************************************************************************************************************


 Program * Restricted Hartree-Fock

 Orbital guess generated from atomic densities. Full valence occupancy:   15   3

 Initial occupancy:  12   3

 NELEC=   30   SYM=1   MS2= 0   THRE=1.0D-08   THRD=3.2D-06   THRG=3.2D-06  HFMA2=F  DIIS_START=2   DIIS_MAX=10   DIIS_INCORE=F

 Level shifts:    0.00 (CLOSED)    0.00 (OPEN)    0.30 (GAP_MIN)

 ITER           ETOT              DE          GRAD        DDIFF     DIIS  NEXP   TIME(IT)  TIME(TOT)  DIAG
   1     -300.13239596    -300.13239596     0.00D+00     0.11D+00     0     0       0.17      0.35    start
   2     -300.17967991      -0.04728395     0.91D-02     0.13D-01     1     0       0.18      0.53    diag
   3     -300.19127958      -0.01159967     0.49D-02     0.37D-02     2     0       0.18      0.71    diag
   4     -300.19164435      -0.00036477     0.58D-03     0.76D-03     3     0       0.17      0.88    diag
   5     -300.19169383      -0.00004948     0.16D-03     0.27D-03     4     0       0.18      1.06    diag
   6     -300.19169888      -0.00000505     0.45D-04     0.80D-04     5     0       0.18      1.24    diag
   7     -300.19169902      -0.00000014     0.77D-05     0.15D-04     6     0       0.18      1.42    diag
   8     -300.19169902      -0.00000000     0.99D-06     0.19D-05     7     0       0.17      1.59    fixocc
   9     -300.19169902      -0.00000000     0.18D-06     0.21D-06     0     0       0.18      1.77    diag

 Final occupancy:  12   3

 !RHF STATE 1.1 Energy               -300.191699024027
  RHF One-electron energy            -578.595879581204
  RHF Two-electron energy             199.055945958902
  RHF Kinetic energy                  299.980521250639
  RHF Nuclear energy                   79.348234598275
  RHF Virial quotient                  -1.000703971620

 !RHF STATE 1.1 Dipole moment          -0.00000139    -0.00000021     0.00000000
 Dipole moment /Debye                  -0.00000353    -0.00000052     0.00000000

 Orbital energies:

           1.1          2.1          3.1          4.1          5.1          6.1          7.1          8.1          9.1         10.1
    -26.316805   -26.316805   -26.316793    -1.637836    -1.614421    -1.614420    -0.800513    -0.800513    -0.794972    -0.682613

          11.1         12.1         13.1         14.1
     -0.661289    -0.661289     0.160889     0.232346

           1.2          2.2          3.2          4.2          5.2
     -0.685152    -0.669282    -0.669282     0.728811     0.828892


 HOMO     12.1    -0.661289 =     -17.9946eV
 LUMO     13.1     0.160889 =       4.3780eV
 LUMO-HOMO         0.822179 =      22.3726eV

 Orbitals saved in record  2100.2


 **********************************************************************************************************************************
 DATASETS  * FILE   NREC   LENGTH (MB)   RECORD NAMES
              1      19       93.00       500      610      700      900      950      970     1000      129      960     1100   
                                          VAR    BASINP    GEOM    SYMINP    ZMAT    AOBASIS   BASIS     P2S    ABASIS      S 
                                         1400     1410     1200     1210     1080     1600     1650     1300     1700   
                                           T        V       H0       H01     AOSYM     SMH    MOLCAS    ERIS     OPER   

              2       4        0.63       700     1000      520     2100   
                                         GEOM     BASIS   MCVARS     RHF  

 PROGRAMS   *        TOTAL    HF-SCF       INT
 CPU TIMES  *         5.77      1.77      3.87
 REAL TIME  *         7.20 SEC
 DISK USED  *       302.15 MB
 **********************************************************************************************************************************


 PROGRAM * CCSD (Closed-shell coupled cluster)     Authors: C. Hampel, H.-J. Werner, 1991, M. Deegan, P.J. Knowles, 1992


 Convergence thresholds:  THRVAR = 1.00D-08  THRDEN = 1.00D-06

 Number of core orbitals:           3 (   3   0 )
 Number of closed-shell orbitals:  12 (   9   3 )
 Number of external orbitals:     117 (  78  39 )

 Molecular orbitals read from record     2100.2  Type=RHF/CANONICAL  

 Number of N-1 electron functions:              12
 Number of N-2 electron functions:              78
 Number of singly external CSFs:               819
 Number of doubly external CSFs:            507195
 Total number of CSFs:                      508015

 Length of J-op  integral file:               0.00 MB
 Length of K-op  integral file:               0.74 MB
 Length of 3-ext integral record:             0.00 MB

 Integral transformation finished. Total CPU:   0.85 sec, npass=  1  Memory used:   4.68 MW

 Reference energy:                   -300.19169902

 MP2 singlet pair energy:              -0.50661486
 MP2 triplet pair energy:              -0.32058769
 MP2 correlation energy:               -0.82720255
 MP2 total energy:                   -301.01890158

 SCS-MP2 correlation energy:           -0.80741462   (PS=  1.200000  PT=  0.333333)
 SCS-MP2 total energy:               -300.99911364

 ITER.      SQ.NORM     CORR.ENERGY   TOTAL ENERGY   ENERGY CHANGE        DEN1      VAR(S)    VAR(P)  DIIS     TIME  TIME/IT
   1      1.14531372    -0.83128688  -301.02298591    -0.00408433     0.01027828  0.22D-02  0.19D-02  1  1     8.28     1.61
   2      1.15260739    -0.83127368  -301.02297271     0.00001320    -0.01220098  0.12D-04  0.22D-03  2  2     9.73     1.63
   3      1.15474153    -0.83137300  -301.02307202    -0.00009931    -0.00161866  0.23D-04  0.79D-05  3  3    11.21     1.67
   4      1.15544916    -0.83131874  -301.02301777     0.00005425    -0.00047101  0.76D-06  0.81D-06  4  4    12.70     1.68
   5      1.15561732    -0.83130948  -301.02300850     0.00000926    -0.00008347  0.16D-06  0.40D-07  5  5    14.16     1.68
   6      1.15564824    -0.83130631  -301.02300534     0.00000316    -0.00000539  0.19D-07  0.47D-08  6  6    15.62     1.68
   7      1.15565800    -0.83130528  -301.02300430     0.00000103    -0.00000208  0.15D-08  0.70D-09  6  2    17.10     1.68
   8      1.15565934    -0.83130529  -301.02300431    -0.00000001     0.00000028  0.14D-09  0.51D-10  6  1    18.55     1.68
   9      1.15565968    -0.83130523  -301.02300425     0.00000006     0.00000026  0.11D-10  0.48D-11  6  3    20.02     1.69

 Norm of t1 vector:      0.05892787      S-energy:     0.00000003      T1 diagnostic:  0.00850551
                                                                       D1 diagnostic:  0.01993435
                                                                       D2 diagnostic:  0.11737089 (internal)


 RESULTS
 =======

  Reference energy                   -300.191699024027
  CCSD singlet pair energy             -0.543879357911
  CCSD triplet pair energy             -0.287425900555
  CCSD correlation energy              -0.831305229445

 !CCSD total energy                  -301.023004253473

 Timing summary (sec):

 STEP                 CPU(USER)    SYS     CPU(TOT)    WALL
 Transformation          0.88      0.11      0.99      1.09
 CCSD iterations        19.19      1.04     20.23     15.24

 Program statistics:

 Available memory in ccsd:               805305780
 Min. memory needed in ccsd:               1392571
 Max. memory used in ccsd:                 1834057
 Max. memory used in cckext:               1851722 ( 9 integral passes)



 **********************************************************************************************************************************
 DATASETS  * FILE   NREC   LENGTH (MB)   RECORD NAMES
              1      20      138.99       500      610      700      900      950      970     1000      129      960     1100   
                                          VAR    BASINP    GEOM    SYMINP    ZMAT    AOBASIS   BASIS     P2S    ABASIS      S 
                                         1400     1410     1200     1210     1080     1600     1650     1300     1700     1380   
                                           T        V       H0       H01     AOSYM     SMH    MOLCAS    ERIS     OPER     JKOP   

              2       4        0.63       700     1000      520     2100   
                                         GEOM     BASIS   MCVARS     RHF  

 PROGRAMS   *        TOTAL      CCSD    HF-SCF       INT
 CPU TIMES  *        19.88     14.11      1.77      3.87
 REAL TIME  *        23.69 SEC
 DISK USED  *       302.15 MB
 **********************************************************************************************************************************

 Dump information in style XML to xml output                                                                      

 Orbitals will not be exported.

 **********************************************************************************************************************************

 CCSD/cc-pVTZ energy=   -301.023004253473

            CCSD          HF-SCF
   -301.02300425   -300.19169902
 **********************************************************************************************************************************
 Molpro calculation terminated
