
 Working directory              : /home/jovyan/scratch/molpro.vdmy0AM5Oc/
 Global scratch directory       : /home/jovyan/scratch/molpro.vdmy0AM5Oc/
 Wavefunction directory         : /home/jovyan/wfu/
 Main file repository           : /home/jovyan/scratch/molpro.vdmy0AM5Oc/

 id        : cardiff

 Nodes                nprocs
 jupyter-c-2efrancisan    1
 GA implementation: MPI file
 GA implementation (serial work in mppx): MPI file

 Using customized tuning parameters: mindgm=1; mindgv=20; mindgc=4; mindgr=1; noblas=0; minvec=7
 default implementation of scratch files=df  


 Variables initialized (1031), CPU time= 0.00 sec
 
 
 
 geometry={
 8
  C     0.0000000    0.0000000   -0.7636815
  C     0.0000000    0.0000000    0.7636815
  H     1.0087494    0.0000000   -1.1676039
  H    -0.5043747   -0.8736026   -1.1676039
  H    -0.5043747    0.8736026   -1.1676039
  H     1.0087494    0.0000000    1.1676039
  H    -0.5043747    0.8736026    1.1676039
  H    -0.5043747   -0.8736026    1.1676039
 }
 basis=cc-pVTZ
 angstrom
 
 
 hf; ccsd
 
 
 
 {put,xml;noorbitals,nobasis}
 Commands initialized (841), CPU time= 0.00 sec, 704 directives.
 Default parameters read. Elapsed time= 0.09 sec

 Checking input...
 Passed
1


                                         ***  PROGRAM SYSTEM MOLPRO  ***
                                       Copyright, TTI GmbH Stuttgart, 2015
                                    Version 2023.1 linked Mon Jun  5 13:27:10 2023


 **********************************************************************************************************************************
 LABEL *                                                                                                                                                                 
  (16 PROC) 64 bit serial version                                                        DATE: 04-Aug-23          TIME: 07:14:23  
 **********************************************************************************************************************************

 SHA1:             9738a14712571edd23541b6d7c4f3a3d766f8287
 **********************************************************************************************************************************

 Memory per process:       805 MW
 Total memory per node:   1074 MW
 Total GA space:           268 MW

 GA preallocation disabled
 GA check enabled

 Geometry recognized as XYZ


 Variable memory set to 805.3 MW

 SETTING BASIS          =    CC-PVTZ


 Recomputing integrals since basis changed


 Using spherical harmonics

 Library entry C      S cc-pVTZ              selected for orbital group  1
 Library entry C      P cc-pVTZ              selected for orbital group  1
 Library entry C      D cc-pVTZ              selected for orbital group  1
 Library entry C      F cc-pVTZ              selected for orbital group  1
 Library entry H      S cc-pVTZ              selected for orbital group  2
 Library entry H      P cc-pVTZ              selected for orbital group  2
 Library entry H      D cc-pVTZ              selected for orbital group  2


 PROGRAM * SEWARD (Integral evaluation for generally contracted gaussian basis sets)     Author: Roland Lindh, 1990

 Geometry written to block  1 of record 700


 Point group  C2v 



 ATOMIC COORDINATES

 NR  ATOM    CHARGE       X              Y              Z

   1  C       6.00    0.000000000    0.000000000   -1.443148881
   2  C       6.00    0.000000000    0.000000000    1.443148881
   3  H       1.00    1.906260094    0.000000000   -2.206451593
   4  H       1.00    1.906260094    0.000000000    2.206451593
   5  H       1.00   -0.953130047   -1.650869656   -2.206451593
   6  H       1.00   -0.953130047    1.650869656   -2.206451593
   7  H       1.00   -0.953130047    1.650869656    2.206451593
   8  H       1.00   -0.953130047   -1.650869656    2.206451593

 Bond lengths in Bohr (Angstrom)

 1-2  2.886297763  1-3  2.053401709  1-5  2.053401699  1-6  2.053401699  2-4  2.053401709
     ( 1.527363000)     ( 1.086613389)     ( 1.086613384)     ( 1.086613384)     ( 1.086613389)

 2-7  2.053401699  2-8  2.053401699
     ( 1.086613384)     ( 1.086613384)

 Bond angles

  1-2-4  111.82210085   1-2-7  111.82210096   1-2-8  111.82210096   2-1-3  111.82210085

  2-1-5  111.82210096   2-1-6  111.82210096   3-1-5  107.02145142   3-1-6  107.02145142

  4-2-7  107.02145142   4-2-8  107.02145142   5-1-6  107.02145093   7-2-8  107.02145093

 NUCLEAR CHARGE:                   18
 NUMBER OF PRIMITIVE AOS:         196
 NUMBER OF SYMMETRY AOS:          180
 NUMBER OF CONTRACTIONS:          144   (   44A1  +   28B1  +   44B2  +   28A2  )
 NUMBER OF INNER CORE ORBITALS:     0   (    0A1  +    0B1  +    0B2  +    0A2  )
 NUMBER OF OUTER CORE ORBITALS:     2   (    1A1  +    0B1  +    1B2  +    0A2  )
 NUMBER OF VALENCE ORBITALS:       14   (    5A1  +    2B1  +    5B2  +    2A2  )


 NUCLEAR REPULSION ENERGY   42.33358783


 Eigenvalues of metric

         1 0.145E-02 0.199E-02 0.465E-02 0.108E-01 0.141E-01 0.313E-01 0.314E-01 0.358E-01
         2 0.199E-02 0.108E-01 0.313E-01 0.358E-01 0.532E-01 0.104E+00 0.133E+00 0.144E+00
         3 0.967E-03 0.144E-02 0.169E-02 0.319E-02 0.793E-02 0.972E-02 0.122E-01 0.170E-01
         4 0.144E-02 0.793E-02 0.122E-01 0.170E-01 0.307E-01 0.495E-01 0.844E-01 0.126E+00


 Contracted 2-electron integrals neglected if value below      1.0D-11
 AO integral compression algorithm  1   Integral accuracy      1.0D-11

     83.362 MB (compressed) written to integral file ( 53.4%)


 NUMBER OF SORTED TWO-ELECTRON INTEGRALS:   13957892.     BUFFER LENGTH:  32768
 NUMBER OF SEGMENTS:   1  SEGMENT LENGTH:   13957892      RECORD LENGTH: 524288

 Memory used in sort:      14.51 MW

 SORT1 READ    19528472. AND WROTE    13522256. INTEGRALS IN     39 RECORDS. CPU TIME:     0.38 SEC, REAL TIME:     0.48 SEC
 SORT2 READ    13522256. AND WROTE    13957892. INTEGRALS IN    318 RECORDS. CPU TIME:     0.45 SEC, REAL TIME:     0.52 SEC

 FILE SIZES:   FILE 1:   113.9 MBYTE,  FILE 4:   163.6 MBYTE,   TOTAL:    277.6 MBYTE

 OPERATOR DM      FOR CENTER  0  COORDINATES:    0.000000    0.000000    0.000000


 **********************************************************************************************************************************
 DATASETS  * FILE   NREC   LENGTH (MB)   RECORD NAMES
              1      19       87.69       500      610      700      900      950      970     1000      129      960     1100   
                                          VAR    BASINP    GEOM    SYMINP    ZMAT    AOBASIS   BASIS     P2S    ABASIS      S 
                                         1400     1410     1200     1210     1080     1600     1650     1300     1700   
                                           T        V       H0       H01     AOSYM     SMH    MOLCAS    ERIS     OPER   

 PROGRAMS   *        TOTAL       INT
 CPU TIMES  *         4.48      4.35
 REAL TIME  *         5.74 SEC
 DISK USED  *       265.20 MB
 **********************************************************************************************************************************


 Program * Restricted Hartree-Fock

 Orbital guess generated from atomic densities. Full valence occupancy:    6   2   6   2

 Initial occupancy:   4   1   3   1

 NELEC=   18   SYM=1   MS2= 0   THRE=1.0D-08   THRD=3.2D-06   THRG=3.2D-06  HFMA2=F  DIIS_START=2   DIIS_MAX=10   DIIS_INCORE=F

 Level shifts:    0.00 (CLOSED)    0.00 (OPEN)    0.30 (GAP_MIN)

 ITER           ETOT              DE          GRAD        DDIFF     DIIS  NEXP   TIME(IT)  TIME(TOT)  DIAG
   1      -79.22399865     -79.22399865     0.00D+00     0.11D+00     0     0       0.05      0.11    start
   2      -79.25084723      -0.02684857     0.78D-02     0.11D-01     1     0       0.06      0.17    diag
   3      -79.25451964      -0.00367242     0.31D-02     0.32D-02     2     0       0.06      0.23    diag
   4      -79.25507618      -0.00055654     0.90D-03     0.12D-02     3     0       0.06      0.29    diag
   5      -79.25508749      -0.00001130     0.11D-03     0.26D-03     4     0       0.06      0.35    diag
   6      -79.25508763      -0.00000014     0.13D-04     0.37D-04     5     0       0.05      0.40    diag
   7      -79.25508763      -0.00000000     0.15D-05     0.36D-05     6     0       0.06      0.46    diag
   8      -79.25508763      -0.00000000     0.25D-06     0.49D-06     7     0       0.06      0.52    fixocc
   9      -79.25508763      -0.00000000     0.30D-07     0.79D-07     0     0       0.05      0.57    diag

 Final occupancy:   4   1   3   1

 !RHF STATE 1.1 Energy                -79.255087629309
  RHF One-electron energy            -189.273274565229
  RHF Two-electron energy              67.684599110781
  RHF Kinetic energy                   79.206111265273
  RHF Nuclear energy                   42.333587825140
  RHF Virial quotient                  -1.000618340722

 !RHF STATE 1.1 Dipole moment          -0.00000001     0.00000000     0.00000000
 Dipole moment /Debye                  -0.00000001     0.00000000     0.00000000

 Orbital energies:

           1.1          2.1          3.1          4.1          5.1          6.1
    -11.208507    -1.017433    -0.596857    -0.512324     0.143245     0.199371

           1.2          2.2          3.2
     -0.596857     0.199371     0.376115

           1.3          2.3          3.3          4.3          5.3
    -11.207913    -0.844478    -0.483835     0.177985     0.268353

           1.4          2.4          3.4
     -0.483835     0.268353     0.457308


 HOMO      1.4    -0.483835 =     -13.1658eV
 LUMO      5.1     0.143245 =       3.8979eV
 LUMO-HOMO         0.627080 =      17.0637eV

 Orbitals saved in record  2100.2


 **********************************************************************************************************************************
 DATASETS  * FILE   NREC   LENGTH (MB)   RECORD NAMES
              1      19       87.69       500      610      700      900      950      970     1000      129      960     1100   
                                          VAR    BASINP    GEOM    SYMINP    ZMAT    AOBASIS   BASIS     P2S    ABASIS      S 
                                         1400     1410     1200     1210     1080     1600     1650     1300     1700   
                                           T        V       H0       H01     AOSYM     SMH    MOLCAS    ERIS     OPER   

              2       4        0.60       700     1000      520     2100   
                                         GEOM     BASIS   MCVARS     RHF  

 PROGRAMS   *        TOTAL    HF-SCF       INT
 CPU TIMES  *         5.05      0.57      4.35
 REAL TIME  *         6.46 SEC
 DISK USED  *       265.20 MB
 **********************************************************************************************************************************


 PROGRAM * CCSD (Closed-shell coupled cluster)     Authors: C. Hampel, H.-J. Werner, 1991, M. Deegan, P.J. Knowles, 1992


 Convergence thresholds:  THRVAR = 1.00D-08  THRDEN = 1.00D-06

 Number of core orbitals:           2 (   1   0   1   0 )
 Number of closed-shell orbitals:   7 (   3   1   2   1 )
 Number of external orbitals:     135 (  40  27  41  27 )

 Molecular orbitals read from record     2100.2  Type=RHF/CANONICAL  

 Number of N-1 electron functions:               7
 Number of N-2 electron functions:              28
 Number of singly external CSFs:               256
 Number of doubly external CSFs:            112921
 Total number of CSFs:                      113178

 Length of J-op  integral file:               0.00 MB
 Length of K-op  integral file:               0.44 MB
 Length of 3-ext integral record:             0.00 MB

 Integral transformation finished. Total CPU:   0.26 sec, npass=  1  Memory used:   1.08 MW

 Reference energy:                    -79.25508763

 MP2 singlet pair energy:              -0.25865300
 MP2 triplet pair energy:              -0.11149072
 MP2 correlation energy:               -0.37014372
 MP2 total energy:                    -79.62523135

 SCS-MP2 correlation energy:           -0.37975560   (PS=  1.200000  PT=  0.333333)
 SCS-MP2 total energy:                -79.63484323

 ITER.      SQ.NORM     CORR.ENERGY   TOTAL ENERGY   ENERGY CHANGE        DEN1      VAR(S)    VAR(P)  DIIS     TIME  TIME/IT
   1      1.12953503    -0.39929993   -79.65438756    -0.02915621    -0.01952246  0.88D-03  0.18D-02  1  1     5.87     0.34
   2      1.13902849    -0.40119293   -79.65628056    -0.00189300    -0.00978749  0.21D-04  0.15D-03  2  2     6.18     0.35
   3      1.14142471    -0.40127430   -79.65636193    -0.00008137    -0.00155119  0.23D-05  0.97D-05  3  3     6.49     0.35
   4      1.14199650    -0.40129324   -79.65638087    -0.00001894    -0.00025456  0.15D-06  0.48D-06  4  4     6.81     0.35
   5      1.14207324    -0.40129364   -79.65638127    -0.00000040    -0.00002994  0.15D-07  0.34D-07  5  5     7.12     0.34
   6      1.14208024    -0.40129247   -79.65638010     0.00000117    -0.00000309  0.15D-08  0.25D-08  6  6     7.43     0.34
   7      1.14208009    -0.40129244   -79.65638007     0.00000003     0.00000010  0.17D-09  0.19D-09  6  2     7.74     0.34
   8      1.14208034    -0.40129247   -79.65638010    -0.00000003    -0.00000017  0.22D-10  0.12D-10  6  1     8.05     0.34

 Norm of t1 vector:      0.03947905      S-energy:    -0.00000004      T1 diagnostic:  0.00746084
                                                                       D1 diagnostic:  0.01314243
                                                                       D2 diagnostic:  0.14042854 (internal)


 RESULTS
 =======

  Reference energy                    -79.255087629309
  CCSD singlet pair energy             -0.295152288947
  CCSD triplet pair energy             -0.106140136922
  CCSD correlation energy              -0.401292466984

 !CCSD total energy                   -79.656380096293

 Timing summary (sec):

 STEP                 CPU(USER)    SYS     CPU(TOT)    WALL
 Transformation          0.27      0.05      0.32      0.35
 CCSD iterations         7.79      0.21      8.00      2.76

 Program statistics:

 Available memory in ccsd:               805306168
 Min. memory needed in ccsd:                366179
 Max. memory used in ccsd:                  458414
 Max. memory used in cckext:                461357 ( 8 integral passes)



 **********************************************************************************************************************************
 DATASETS  * FILE   NREC   LENGTH (MB)   RECORD NAMES
              1      20      106.08       500      610      700      900      950      970     1000      129      960     1100   
                                          VAR    BASINP    GEOM    SYMINP    ZMAT    AOBASIS   BASIS     P2S    ABASIS      S 
                                         1400     1410     1200     1210     1080     1600     1650     1300     1700     1380   
                                           T        V       H0       H01     AOSYM     SMH    MOLCAS    ERIS     OPER     JKOP   

              2       4        0.60       700     1000      520     2100   
                                         GEOM     BASIS   MCVARS     RHF  

 PROGRAMS   *        TOTAL      CCSD    HF-SCF       INT
 CPU TIMES  *         7.84      2.79      0.57      4.35
 REAL TIME  *         9.61 SEC
 DISK USED  *       265.20 MB
 **********************************************************************************************************************************

 Dump information in style XML to xml output                                                                      

 Orbitals will not be exported.

 **********************************************************************************************************************************

 CCSD/cc-pVTZ energy=    -79.656380096293

            CCSD          HF-SCF
    -79.65638010    -79.25508763
 **********************************************************************************************************************************
 Molpro calculation terminated
