
 Working directory              : /home/jovyan/scratch/molpro.Zh6u5o9UhG/
 Global scratch directory       : /home/jovyan/scratch/molpro.Zh6u5o9UhG/
 Wavefunction directory         : /home/jovyan/wfu/
 Main file repository           : /home/jovyan/scratch/molpro.Zh6u5o9UhG/

 id        : cardiff

 Nodes                nprocs
 jupyter-c-2efrancisan    1
 GA implementation: MPI file
 GA implementation (serial work in mppx): MPI file

 Using customized tuning parameters: mindgm=1; mindgv=20; mindgc=4; mindgr=1; noblas=0; minvec=7
 default implementation of scratch files=df  


 Variables initialized (1031), CPU time= 0.00 sec
 
 
 
 geometry={
 3
    O   -0.02085472758024      0.00000000000000     -0.01495598121153
    H   0.01876805202920      0.00000000000000      0.94578209125484
    H   0.89775667555104      0.00000000000000     -0.29748911004330
 }
 basis=cc-pVDZ
 angstrom
 
 
 hf; mp2
 
 
 
 {put,xml;noorbitals,nobasis}
 Commands initialized (841), CPU time= 0.01 sec, 704 directives.
 Default parameters read. Elapsed time= 0.08 sec

 Checking input...
 Passed
1


                                         ***  PROGRAM SYSTEM MOLPRO  ***
                                       Copyright, TTI GmbH Stuttgart, 2015
                                    Version 2023.1 linked Mon Jun  5 13:27:10 2023


 **********************************************************************************************************************************
 LABEL *                                                                                                                                                                 
  (16 PROC) 64 bit serial version                                                        DATE: 02-Aug-23          TIME: 15:28:37  
 **********************************************************************************************************************************

 SHA1:             9738a14712571edd23541b6d7c4f3a3d766f8287
 **********************************************************************************************************************************

 Memory per process:       805 MW
 Total memory per node:   1074 MW
 Total GA space:           268 MW

 GA preallocation disabled
 GA check enabled

 Geometry recognized as XYZ


 Variable memory set to 805.3 MW

 SETTING BASIS          =    CC-PVDZ


 Recomputing integrals since basis changed


 Using spherical harmonics

 Library entry O      S cc-pVDZ              selected for orbital group  1
 Library entry O      P cc-pVDZ              selected for orbital group  1
 Library entry O      D cc-pVDZ              selected for orbital group  1
 Library entry H      S cc-pVDZ              selected for orbital group  2
 Library entry H      P cc-pVDZ              selected for orbital group  2


 PROGRAM * SEWARD (Integral evaluation for generally contracted gaussian basis sets)     Author: Roland Lindh, 1990

 Geometry written to block  1 of record 700


 Point group  Cs  



 ATOMIC COORDINATES

 NR  ATOM    CHARGE       X              Y              Z

   1  O       8.00   -0.039409724    0.000000000   -0.028262708
   2  H       1.00    0.035466478    0.000000000    1.787269126
   3  H       1.00    1.696514243    0.000000000   -0.562172943

 Bond lengths in Bohr (Angstrom)

 1-2  1.817075201  1-3  1.816175145
     ( 0.961554787)     ( 0.961078498)

 Bond angles

  2-1-3  104.73443354

 NUCLEAR CHARGE:                   10
 NUMBER OF PRIMITIVE AOS:          41
 NUMBER OF SYMMETRY AOS:           40
 NUMBER OF CONTRACTIONS:           24   (   18A'  +    6A"  )
 NUMBER OF INNER CORE ORBITALS:     0   (    0A'  +    0A"  )
 NUMBER OF OUTER CORE ORBITALS:     1   (    1A'  +    0A"  )
 NUMBER OF VALENCE ORBITALS:        6   (    5A'  +    1A"  )


 NUCLEAR REPULSION ENERGY    9.15508706

 Eigenvalues of metric

         1 0.177E-01 0.448E-01 0.511E-01 0.989E-01 0.160E+00 0.171E+00 0.222E+00 0.514E+00
         2 0.183E+00 0.526E+00 0.621E+00 0.110E+01 0.133E+01 0.224E+01


 Contracted 2-electron integrals neglected if value below      1.0D-11
 AO integral compression algorithm  1   Integral accuracy      1.0D-11

     0.262 MB (compressed) written to integral file (100.0%)


 NUMBER OF SORTED TWO-ELECTRON INTEGRALS:      25710.     BUFFER LENGTH:  32768
 NUMBER OF SEGMENTS:   1  SEGMENT LENGTH:      25710      RECORD LENGTH: 524288

 Memory used in sort:       0.58 MW

 SORT1 READ       31790. AND WROTE       23239. INTEGRALS IN      1 RECORDS. CPU TIME:     0.00 SEC, REAL TIME:     0.10 SEC
 SORT2 READ       23239. AND WROTE       25710. INTEGRALS IN      1 RECORDS. CPU TIME:     0.01 SEC, REAL TIME:     0.00 SEC

 FILE SIZES:   FILE 1:    30.3 MBYTE,  FILE 4:     4.3 MBYTE,   TOTAL:     34.5 MBYTE

 OPERATOR DM      FOR CENTER  0  COORDINATES:    0.000000    0.000000    0.000000


 **********************************************************************************************************************************
 DATASETS  * FILE   NREC   LENGTH (MB)   RECORD NAMES
              1      19       28.77       500      610      700      900      950      970     1000      129      960     1100   
                                          VAR    BASINP    GEOM    SYMINP    ZMAT    AOBASIS   BASIS     P2S    ABASIS      S 
                                         1400     1410     1200     1210     1080     1600     1650     1300     1700   
                                           T        V       H0       H01     AOSYM     SMH    MOLCAS    ERIS     OPER   

 PROGRAMS   *        TOTAL       INT
 CPU TIMES  *         0.51      0.38
 REAL TIME  *         2.29 SEC
 DISK USED  *        33.29 MB
 **********************************************************************************************************************************


 Program * Restricted Hartree-Fock

 Orbital guess generated from atomic densities. Full valence occupancy:    6   1

 Initial occupancy:   4   1

 NELEC=   10   SYM=1   MS2= 0   THRE=1.0D-08   THRD=3.2D-06   THRG=3.2D-06  HFMA2=F  DIIS_START=2   DIIS_MAX=10   DIIS_INCORE=F

 Level shifts:    0.00 (CLOSED)    0.00 (OPEN)    0.30 (GAP_MIN)

 ITER           ETOT              DE          GRAD        DDIFF     DIIS  NEXP   TIME(IT)  TIME(TOT)  DIAG
   1      -75.98828646     -75.98828646     0.00D+00     0.30D+00     0     0       0.00      0.00    start
   2      -76.01786872      -0.02958226     0.27D-01     0.57D-01     1     0       0.00      0.00    diag
   3      -76.02633088      -0.00846216     0.14D-01     0.19D-01     2     0       0.00      0.00    diag
   4      -76.02654916      -0.00021828     0.16D-02     0.35D-02     3     0       0.00      0.00    diag
   5      -76.02656677      -0.00001761     0.43D-03     0.11D-02     4     0       0.00      0.00    diag
   6      -76.02656734      -0.00000057     0.68D-04     0.17D-03     5     0       0.00      0.00    diag
   7      -76.02656735      -0.00000001     0.99D-05     0.31D-04     6     0       0.00      0.00    diag
   8      -76.02656735      -0.00000000     0.84D-06     0.23D-05     7     0       0.00      0.00    fixocc
   9      -76.02656735      -0.00000000     0.11D-06     0.20D-06     0     0       0.00      0.00    diag

 Final occupancy:   4   1

 !RHF STATE 1.1 Energy                -76.026567350835
  RHF One-electron energy            -123.081006679641
  RHF Two-electron energy              37.899352272063
  RHF Kinetic energy                   75.972780916552
  RHF Nuclear energy                    9.155087056744
  RHF Virial quotient                  -1.000707969797

 !RHF STATE 1.1 Dipole moment           0.66059584     0.00000000     0.46739683
 Dipole moment /Debye                   1.67906716     0.00000000     1.18800424

 Orbital energies:

           1.1          2.1          3.1          4.1          5.1          6.1
    -20.551020    -1.334454    -0.697537    -0.565366     0.184925     0.255628

           1.2          2.2          3.2
     -0.492774     1.200397     1.474486


 HOMO      1.2    -0.492774 =     -13.4091eV
 LUMO      5.1     0.184925 =       5.0321eV
 LUMO-HOMO         0.677698 =      18.4411eV

 Orbitals saved in record  2100.2


 **********************************************************************************************************************************
 DATASETS  * FILE   NREC   LENGTH (MB)   RECORD NAMES
              1      19       28.77       500      610      700      900      950      970     1000      129      960     1100   
                                          VAR    BASINP    GEOM    SYMINP    ZMAT    AOBASIS   BASIS     P2S    ABASIS      S 
                                         1400     1410     1200     1210     1080     1600     1650     1300     1700   
                                           T        V       H0       H01     AOSYM     SMH    MOLCAS    ERIS     OPER   

              2       4        0.41       700     1000      520     2100   
                                         GEOM     BASIS   MCVARS     RHF  

 PROGRAMS   *        TOTAL    HF-SCF       INT
 CPU TIMES  *         0.52      0.01      0.38
 REAL TIME  *         2.47 SEC
 DISK USED  *        33.29 MB
 **********************************************************************************************************************************


 PROGRAM * MP2 (Closed-shell)     Authors: C. Hampel, H.-J. Werner, 1991, M. Deegan, P.J. Knowles, 1992


 Convergence thresholds:  THRVAR = 1.00D-08  THRDEN = 1.00D-06

 Number of core orbitals:           1 (   1   0 )
 Number of closed-shell orbitals:   4 (   3   1 )
 Number of external orbitals:      19 (  14   5 )

 Molecular orbitals read from record     2100.2  Type=RHF/CANONICAL  

 Number of N-1 electron functions:               4
 Number of N-2 electron functions:              10
 Number of singly external CSFs:                47
 Number of doubly external CSFs:              1563
 Total number of CSFs:                        1611

 Length of J-op  integral file:               0.00 MB
 Length of K-op  integral file:               0.09 MB

 Integral transformation finished. Total CPU:   0.00 sec, npass=  1  Memory used:   0.07 MW

 Memory needed for MP2:                      0.00 MW

 SCS-MP2 correlation energy:           -0.198286154591   (PS=  1.200000  PT=  0.333333)
 SCS-MP2 total energy:                -76.224853505426


  Reference energy                    -76.026567350835
  MP2 singlet pair energy              -0.125765600066
  MP2 triplet pair energy              -0.076126234036
  MP2 correlation energy               -0.201891834103

 !MP2 total energy                    -76.228459184937


 **********************************************************************************************************************************
 DATASETS  * FILE   NREC   LENGTH (MB)   RECORD NAMES
              1      20       28.81       500      610      700      900      950      970     1000      129      960     1100   
                                          VAR    BASINP    GEOM    SYMINP    ZMAT    AOBASIS   BASIS     P2S    ABASIS      S 
                                         1400     1410     1200     1210     1080     1600     1650     1300     1700     1380   
                                           T        V       H0       H01     AOSYM     SMH    MOLCAS    ERIS     OPER     JKOP   

              2       4        0.41       700     1000      520     2100   
                                         GEOM     BASIS   MCVARS     RHF  

 PROGRAMS   *        TOTAL       MP2    HF-SCF       INT
 CPU TIMES  *         0.57      0.04      0.01      0.38
 REAL TIME  *         2.57 SEC
 DISK USED  *        33.29 MB
 **********************************************************************************************************************************

 Dump information in style XML to xml output                                                                      

 Orbitals will not be exported.

 **********************************************************************************************************************************

 MP2/cc-pVDZ energy=    -76.228459184937

             MP2          HF-SCF
    -76.22845918    -76.02656735
 **********************************************************************************************************************************
 Molpro calculation terminated
