
 Working directory              : /home/jovyan/scratch/molpro.sXYvKNRVer/
 Global scratch directory       : /home/jovyan/scratch/molpro.sXYvKNRVer/
 Wavefunction directory         : /home/jovyan/wfu/
 Main file repository           : /home/jovyan/scratch/molpro.sXYvKNRVer/

 id        : cardiff

 Nodes                nprocs
 jupyter-c-2efrancisan    1
 GA implementation: MPI file
 GA implementation (serial work in mppx): MPI file

 Using customized tuning parameters: mindgm=1; mindgv=20; mindgc=4; mindgr=1; noblas=0; minvec=7
 default implementation of scratch files=df  


 Variables initialized (1031), CPU time= 0.01 sec
 
 
 
 geometry={
 9
  3H2OTS (Full point group Cs)
  O -0.027616 -0.689983 1.190325
  H -0.037707 0.477614 -0.829995
  H -0.037707 0.477614 0.829995
  O -0.027616 1.374206 0.000000
  H 0.055118 -0.961226 0.000000
  O -0.027616 -0.689983 -1.190325
  H -0.845615 1.879517 0.000000
  H 0.764349 -0.913715 1.686779
  H 0.764349 -0.913715 -1.686779
 }
 basis=cc-pVTZ
 angstrom
 
 
 hf; papt;mp4
 
 
 
 {put,xml;noorbitals,nobasis}
 Commands initialized (841), CPU time= 0.01 sec, 704 directives.
 Default parameters read. Elapsed time= 0.08 sec

 Checking input...
 Passed
1


                                         ***  PROGRAM SYSTEM MOLPRO  ***
                                       Copyright, TTI GmbH Stuttgart, 2015
                                    Version 2023.1 linked Mon Jun  5 13:27:10 2023


 **********************************************************************************************************************************
 LABEL *                                                                                                                                                                 
  (16 PROC) 64 bit serial version                                                        DATE: 03-Aug-23          TIME: 13:21:45  
 **********************************************************************************************************************************

 SHA1:             9738a14712571edd23541b6d7c4f3a3d766f8287
 **********************************************************************************************************************************

 Memory per process:       805 MW
 Total memory per node:   1074 MW
 Total GA space:           268 MW

 GA preallocation disabled
 GA check enabled

 Geometry recognized as XYZ


 Variable memory set to 805.3 MW

 SETTING BASIS          =    CC-PVTZ


 Recomputing integrals since basis changed


 Using spherical harmonics

 Library entry O      S cc-pVTZ              selected for orbital group  1
 Library entry O      P cc-pVTZ              selected for orbital group  1
 Library entry O      D cc-pVTZ              selected for orbital group  1
 Library entry O      F cc-pVTZ              selected for orbital group  1
 Library entry H      S cc-pVTZ              selected for orbital group  2
 Library entry H      P cc-pVTZ              selected for orbital group  2
 Library entry H      D cc-pVTZ              selected for orbital group  2


 PROGRAM * SEWARD (Integral evaluation for generally contracted gaussian basis sets)     Author: Roland Lindh, 1990

 Geometry written to block  1 of record 700


 Point group  Cs  



 ATOMIC COORDINATES

 NR  ATOM    CHARGE       X              Y              Z

   1  O       8.00   -0.052186677   -1.303878901    2.249388249
   2  O       8.00   -0.052186677   -1.303878901   -2.249388249
   3  H       1.00   -0.071255903    0.902559653   -1.568463235
   4  H       1.00   -0.071255903    0.902559653    1.568463235
   5  O       8.00   -0.052186677    2.596872979    0.000000000
   6  H       1.00    0.104157925   -1.816453884    0.000000000
   7  H       1.00   -1.597980757    3.551772377    0.000000000
   8  H       1.00    1.444410274   -1.726671106    3.187550343
   9  H       1.00    1.444410274   -1.726671106   -3.187550343

 Bond lengths in Bohr (Angstrom)

 1-4  2.309197610  1-6  2.312341723  1-8  1.816233408  2-3  2.309197610  2-6  2.312341723
     ( 1.221974751)     ( 1.223638544)     ( 0.961109329)     ( 1.221974751)     ( 1.223638544)

 2-9  1.816233408  3-5  2.308925767  4-5  2.308925767  5-7  1.816951347
     ( 0.961109329)     ( 1.221830898)     ( 1.221830898)     ( 0.961489246)

 Bond angles

  1-4-5  154.34237572   1-6-2  153.19957212   2-3-5  154.34237572   3-2-6   85.72843209

  3-2-9  112.42950963   3-5-4   85.57860717   3-5-7  112.24871338   4-1-6   85.72843209

  4-1-8  112.42950963   4-5-7  112.24871338   6-1-8  113.27623709   6-2-9  113.27623709

 NUCLEAR CHARGE:                   30
 NUMBER OF PRIMITIVE AOS:         243
 NUMBER OF SYMMETRY AOS:          222
 NUMBER OF CONTRACTIONS:          174   (   98A'  +   76A"  )
 NUMBER OF INNER CORE ORBITALS:     0   (    0A'  +    0A"  )
 NUMBER OF OUTER CORE ORBITALS:     3   (    2A'  +    1A"  )
 NUMBER OF VALENCE ORBITALS:       18   (   11A'  +    7A"  )


 NUCLEAR REPULSION ENERGY   94.33036903


 Eigenvalues of metric

         1 0.124E-02 0.154E-02 0.399E-02 0.430E-02 0.585E-02 0.686E-02 0.840E-02 0.870E-02
         2 0.115E-02 0.374E-02 0.593E-02 0.871E-02 0.119E-01 0.134E-01 0.250E-01 0.272E-01


 Contracted 2-electron integrals neglected if value below      1.0D-11
 AO integral compression algorithm  1   Integral accuracy      1.0D-11

     250.348 MB (compressed) written to integral file ( 45.4%)


 NUMBER OF SORTED TWO-ELECTRON INTEGRALS:   58632805.     BUFFER LENGTH:  32768
 NUMBER OF SEGMENTS:   4  SEGMENT LENGTH:   15998212      RECORD LENGTH: 524288

 Memory used in sort:      16.56 MW

 SORT1 READ    68938744. AND WROTE    53876118. INTEGRALS IN    157 RECORDS. CPU TIME:     0.90 SEC, REAL TIME:     5.33 SEC
 SORT2 READ    53876118. AND WROTE    58632805. INTEGRALS IN    955 RECORDS. CPU TIME:     1.28 SEC, REAL TIME:     1.94 SEC

 FILE SIZES:   FILE 1:   281.3 MBYTE,  FILE 4:   658.6 MBYTE,   TOTAL:    939.8 MBYTE

 OPERATOR DM      FOR CENTER  0  COORDINATES:    0.000000    0.000000    0.000000


 **********************************************************************************************************************************
 DATASETS  * FILE   NREC   LENGTH (MB)   RECORD NAMES
              1      19      241.83       500      610      700      900      950      970     1000      129      960     1100   
                                          VAR    BASINP    GEOM    SYMINP    ZMAT    AOBASIS   BASIS     P2S    ABASIS      S 
                                         1400     1410     1200     1210     1080     1600     1650     1300     1700   
                                           T        V       H0       H01     AOSYM     SMH    MOLCAS    ERIS     OPER   

 PROGRAMS   *        TOTAL       INT
 CPU TIMES  *         8.62      8.48
 REAL TIME  *        17.74 SEC
 DISK USED  *       896.79 MB
 **********************************************************************************************************************************


 Program * Restricted Hartree-Fock

 Orbital guess generated from atomic densities. Full valence occupancy:   13   8

 Initial occupancy:   9   6

 NELEC=   30   SYM=1   MS2= 0   THRE=1.0D-08   THRD=3.2D-06   THRG=3.2D-06  HFMA2=F  DIIS_START=2   DIIS_MAX=10   DIIS_INCORE=F

 Level shifts:    0.00 (CLOSED)    0.00 (OPEN)    0.30 (GAP_MIN)

 ITER           ETOT              DE          GRAD        DDIFF     DIIS  NEXP   TIME(IT)  TIME(TOT)  DIAG
   1     -228.03709791    -228.03709791     0.00D+00     0.83D-01     0     0       0.43      0.85    start
   2     -228.09699664      -0.05989873     0.91D-02     0.12D-01     1     0       0.43      1.28    diag
   3     -228.11415994      -0.01716330     0.49D-02     0.39D-02     2     0       0.45      1.73    diag
   4     -228.11458968      -0.00042974     0.56D-03     0.61D-03     3     0       0.46      2.19    diag
   5     -228.11461730      -0.00002762     0.12D-03     0.14D-03     4     0       0.44      2.63    diag
   6     -228.11461938      -0.00000208     0.30D-04     0.44D-04     5     0       0.43      3.06    diag
   7     -228.11461960      -0.00000022     0.13D-04     0.14D-04     6     0       0.44      3.50    diag
   8     -228.11461962      -0.00000002     0.33D-05     0.57D-05     7     0       0.45      3.95    fixocc
   9     -228.11461962      -0.00000000     0.61D-06     0.11D-05     8     0       0.44      4.39    diag
  10     -228.11461962      -0.00000000     0.17D-06     0.20D-06     0     0       0.43      4.82    diag/orth

 Final occupancy:   9   6

 !RHF STATE 1.1 Energy               -228.114619624689
  RHF One-electron energy            -502.923679232440
  RHF Two-electron energy             180.478690578073
  RHF Kinetic energy                  227.782367314358
  RHF Nuclear energy                   94.330369029679
  RHF Virial quotient                  -1.001458639289

 !RHF STATE 1.1 Dipole moment           0.55383134     0.04146656     0.00000000
 Dipole moment /Debye                   1.40769886     0.10539747     0.00000000

 Orbital energies:

           1.1          2.1          3.1          4.1          5.1          6.1          7.1          8.1          9.1         10.1
    -20.549240   -20.548991    -1.377163    -1.307773    -0.774784    -0.701115    -0.607873    -0.552411    -0.479690     0.133955

          11.1
      0.177240

           1.2          2.2          3.2          4.2          5.2          6.2          7.2          8.2
    -20.549264    -1.308100    -0.696655    -0.589922    -0.473381    -0.466784     0.181976     0.314242


 HOMO      6.2    -0.466784 =     -12.7018eV
 LUMO     10.1     0.133955 =       3.6451eV
 LUMO-HOMO         0.600739 =      16.3469eV

 Orbitals saved in record  2100.2


 **********************************************************************************************************************************
 DATASETS  * FILE   NREC   LENGTH (MB)   RECORD NAMES
              1      19      241.83       500      610      700      900      950      970     1000      129      960     1100   
                                          VAR    BASINP    GEOM    SYMINP    ZMAT    AOBASIS   BASIS     P2S    ABASIS      S 
                                         1400     1410     1200     1210     1080     1600     1650     1300     1700   
                                           T        V       H0       H01     AOSYM     SMH    MOLCAS    ERIS     OPER   

              2       4        0.77       700     1000      520     2100   
                                         GEOM     BASIS   MCVARS     RHF  

 PROGRAMS   *        TOTAL    HF-SCF       INT
 CPU TIMES  *        13.45      4.83      8.48
 REAL TIME  *        30.73 SEC
 DISK USED  *       896.79 MB
 **********************************************************************************************************************************


 PROGRAM * PAPT (Closed-shell)     Authors: C. Hampel, H.-J. Werner, 1991, P.J. Knowles, 2021


 Convergence thresholds:  THRVAR = 1.00D-08  THRDEN = 1.00D-06

 Number of core orbitals:           3 (   2   1 )
 Number of closed-shell orbitals:  12 (   7   5 )
 Number of external orbitals:     159 (  89  70 )

 Molecular orbitals read from record     2100.2  Type=RHF/CANONICAL  

 Number of N-1 electron functions:              12
 Number of N-2 electron functions:              78
 Number of singly external CSFs:               973
 Number of doubly external CSFs:            911431
 Total number of CSFs:                      912405

 Length of J-op  integral file:               0.00 MB
 Length of K-op  integral file:               1.12 MB

 Integral transformation finished. Total CPU:   0.97 sec, npass=  1  Memory used:   1.53 MW

 Reference energy:                   -228.11461962

                        CORR.ENERGY   TOTAL ENERGY   ENERGY CHANGE
 MP2:                   -0.83091593  -228.94553555    -0.83091593

 SCS-MP2 correlation energy:           -0.81381612   (PS=  1.200000  PT=  0.333333)
 SCS-MP2 total energy:               -228.92843575
 Iteration:   1     0.2247D+00
 Iteration:   2     0.3019D+00
 Iteration:   3     0.7355D-01
 Iteration:   4     0.4505D-01
 Iteration:   5     0.6342D-01
 Iteration:   6     0.6424D-02
 Iteration:   7     0.1597D-01
 Iteration:   8     0.2370D-02
 Iteration:   9     0.1835D-02
 Iteration:  10     0.2930D-02
 Iteration:  11     0.5365D-03
 Iteration:  12     0.4504D-02
 Iteration:  13     0.1723D-03
 Iteration:  14     0.1597D-03
 Iteration:  15     0.1412D-03
 Iteration:  16     0.4336D-04
 PAPT operator written to  7000.1
 PAPT orbitals and eigenvalues written to  7000.2

 MP3(D):                -0.83107409  -228.94569371    -0.00015816



 RESULTS
 =======

  Reference energy                   -228.114619624689
  MP3 singlet pair energy              -0.543716203198
  MP3 triplet pair energy              -0.287357886265
  MP3 correlation energy               -0.831074089463

 !MP3 total energy                   -228.945693714152

 Timing summary (sec):

 STEP                 CPU(USER)    SYS     CPU(TOT)    WALL
 Transformation          1.03      0.08      1.11      1.14
 CCSD iterations        18.09      0.27     18.36      4.98

 Program statistics:

 Available memory in ccsd:               805305783
 Min. memory needed in ccsd:               2416049
 Max. memory used in ccsd:                 3222285
 Max. memory used in cckext:               3234564 ( 1 integral passes)



 **********************************************************************************************************************************
 DATASETS  * FILE   NREC   LENGTH (MB)   RECORD NAMES
              1      21      255.69       500      610      700      900      950      970     1000      129      960     1100   
                                          VAR    BASINP    GEOM    SYMINP    ZMAT    AOBASIS   BASIS     P2S    ABASIS      S 
                                         1400     1410     1200     1210     1080     1600     1650     1300     1700     1380   
                                           T        V       H0       H01     AOSYM     SMH    MOLCAS    ERIS     OPER     JKOP   
                                         7000   
                                        PAPT AO    

              2       5        1.23       700     1000      520     2100     7000   
                                         GEOM     BASIS   MCVARS     RHF     PAPT   

 PROGRAMS   *        TOTAL      PAPT    HF-SCF       INT
 CPU TIMES  *        18.91      5.45      4.83      8.48
 REAL TIME  *        36.89 SEC
 DISK USED  *       896.79 MB
 **********************************************************************************************************************************


 PROGRAM * MP4 (Closed-shell)     Authors: C. Hampel, H.-J. Werner, 1991, M. Deegan, P.J. Knowles, 1992


 Convergence thresholds:  THRVAR = 1.00D-08  THRDEN = 1.00D-06

 MP4(T)     terms to be evaluated (factor= 0.000)


 Number of core orbitals:           3 (   2   1 )
 Number of closed-shell orbitals:  12 (   7   5 )
 Number of external orbitals:     159 (  89  70 )

 Molecular orbitals read from record     7000.2  Type=PAPT/CANONICAL (state 1.1)

 Number of N-1 electron functions:              12
 Number of N-2 electron functions:              78
 Number of singly external CSFs:               973
 Number of doubly external CSFs:            911431
 Total number of CSFs:                      912405

 Length of J-op  integral file:               0.00 MB
 Length of K-op  integral file:               1.12 MB

 Memory could be reduced to 30.67 Mwords without degradation in triples

 Integral transformation finished. Total CPU:   2.86 sec, npass=  1  Memory used:  13.65 MW
 Orbital energies read from record       7000.2  Type=PAPT/CANONICAL (state 1.1)

 Reference energy:                   -228.11461962

                        CORR.ENERGY   TOTAL ENERGY   ENERGY CHANGE
 MP2:                   -0.83617752  -228.95079715    -0.83617752

 SCS-MP2 correlation energy:           -0.82100526   (PS=  1.200000  PT=  0.333333)
 SCS-MP2 total energy:               -228.93562489

 MP3(D):                -0.83621767  -228.95083730    -0.00004015
 MP4(DQ):               -0.83024463  -228.94486426     0.00597304
 MP4(SDQ):              -0.83577699  -228.95039662    -0.00553236

 Norm of t1 vector:      0.05375334      S-energy:    -0.00553236      T1 diagnostic:  0.00775863

 Largest off-diagonal element in interal  block of Fock matrix:  0.79D-01
 Largest off-diagonal element in external block of Fock matrix:  0.31D+00


 Total CPU time for triples:     49.81 sec


 RESULTS
 =======

  Reference energy                   -228.114619624689
  MP4(SDQ) singlet pair energy         -0.541178241082
  MP4(SDQ) triplet pair energy         -0.289066389265
  MP4(SDQ) correlation energy          -0.835776992806

  Triples contribution                 -0.032217970723
  Total correlation energy             -0.867994963528

  MP4(SDQ) total energy              -228.950396617494
 !MP4(SDTQ) total energy             -228.982614588217

 Timing summary (sec):

 STEP                 CPU(USER)    SYS     CPU(TOT)    WALL
 Transformation          3.35      0.27      3.62      3.92
 CCSD iterations        22.60      0.17     22.77      3.82
 Triples                49.81      2.48     52.29     53.13

 Program statistics:

 Available memory in ccsd:               805305783
 Min. memory needed in ccsd:               2416049
 Max. memory used in ccsd:                 3222285
 Max. memory used in cckext:               3234564 ( 1 integral passes)



 **********************************************************************************************************************************
 DATASETS  * FILE   NREC   LENGTH (MB)   RECORD NAMES
              1      22      348.31       500      610      700      900      950      970     1000      129      960     1100   
                                          VAR    BASINP    GEOM    SYMINP    ZMAT    AOBASIS   BASIS     P2S    ABASIS      S 
                                         1400     1410     1200     1210     1080     1600     1650     1300     1700     1380   
                                           T        V       H0       H01     AOSYM     SMH    MOLCAS    ERIS     OPER     JKOP   
                                         7000     1380(1)
                                        PAPT AO   JKOP   

              2       5        1.23       700     1000      520     2100     7000   
                                         GEOM     BASIS   MCVARS     RHF     PAPT   

 PROGRAMS   *        TOTAL       MP4      PAPT    HF-SCF       INT
 CPU TIMES  *        75.55     56.63      5.45      4.83      8.48
 REAL TIME  *        97.81 SEC
 DISK USED  *       896.79 MB
 **********************************************************************************************************************************

 Dump information in style XML to xml output                                                                      

 Orbitals will not be exported.

 **********************************************************************************************************************************

 MP4/cc-pVTZ energy=   -228.982614588217

             MP4            PAPT          HF-SCF
   -228.98261459   -228.94569371   -228.11461962
 **********************************************************************************************************************************
 Molpro calculation terminated
