
 Working directory              : /home/jovyan/scratch/molpro.eb7nDGuwCe/
 Global scratch directory       : /home/jovyan/scratch/molpro.eb7nDGuwCe/
 Wavefunction directory         : /home/jovyan/wfu/
 Main file repository           : /home/jovyan/scratch/molpro.eb7nDGuwCe/

 id        : cardiff

 Nodes                nprocs
 jupyter-c-2efrancisan    1
 GA implementation: MPI file
 GA implementation (serial work in mppx): MPI file

 Using customized tuning parameters: mindgm=1; mindgv=20; mindgc=4; mindgr=1; noblas=0; minvec=7
 default implementation of scratch files=df  


 Variables initialized (1031), CPU time= 0.00 sec
 
 
 
 geometry={
            3
     C          0.37482171      0.51783010      0.00000000
     N          0.37482171     -0.67052208      0.00000000
     H         -0.74964343      0.15269198      0.00000000
 }
 basis=cc-pVTZ
 angstrom
 
 
 hf; mp3
 
 
 
 {put,xml;noorbitals,nobasis}
 Commands initialized (841), CPU time= 0.00 sec, 704 directives.
 Default parameters read. Elapsed time= 0.08 sec

 Checking input...
 Passed
1


                                         ***  PROGRAM SYSTEM MOLPRO  ***
                                       Copyright, TTI GmbH Stuttgart, 2015
                                    Version 2023.1 linked Mon Jun  5 13:27:10 2023


 **********************************************************************************************************************************
 LABEL *                                                                                                                                                                 
  (16 PROC) 64 bit serial version                                                        DATE: 02-Aug-23          TIME: 15:37:53  
 **********************************************************************************************************************************

 SHA1:             9738a14712571edd23541b6d7c4f3a3d766f8287
 **********************************************************************************************************************************

 Memory per process:       805 MW
 Total memory per node:   1074 MW
 Total GA space:           268 MW

 GA preallocation disabled
 GA check enabled

 Geometry recognized as XYZ


 Variable memory set to 805.3 MW

 SETTING BASIS          =    CC-PVTZ


 Recomputing integrals since basis changed


 Using spherical harmonics

 Library entry C      S cc-pVTZ              selected for orbital group  1
 Library entry C      P cc-pVTZ              selected for orbital group  1
 Library entry C      D cc-pVTZ              selected for orbital group  1
 Library entry C      F cc-pVTZ              selected for orbital group  1
 Library entry N      S cc-pVTZ              selected for orbital group  2
 Library entry N      P cc-pVTZ              selected for orbital group  2
 Library entry N      D cc-pVTZ              selected for orbital group  2
 Library entry N      F cc-pVTZ              selected for orbital group  2
 Library entry H      S cc-pVTZ              selected for orbital group  3
 Library entry H      P cc-pVTZ              selected for orbital group  3
 Library entry H      D cc-pVTZ              selected for orbital group  3


 PROGRAM * SEWARD (Integral evaluation for generally contracted gaussian basis sets)     Author: Roland Lindh, 1990

 Geometry written to block  1 of record 700


 Point group  Cs  



 ATOMIC COORDINATES

 NR  ATOM    CHARGE       X              Y              Z

   1  C       6.00    0.708310377    0.978557068    0.000000000
   2  N       7.00    0.708310377   -1.267103092    0.000000000
   3  H       1.00   -1.416620774    0.288546024    0.000000000

 Bond lengths in Bohr (Angstrom)

 1-2  2.245660160  1-3  2.234154793  2-3  2.633510313
     ( 1.188352180)     ( 1.182263802)     ( 1.393593642)

 Bond angles

  1-2-3   53.79236971   1-3-2   54.19736348   2-1-3   72.01026681

 NUCLEAR CHARGE:                   14
 NUMBER OF PRIMITIVE AOS:         111
 NUMBER OF SYMMETRY AOS:          100
 NUMBER OF CONTRACTIONS:           74   (   50A'  +   24A"  )
 NUMBER OF INNER CORE ORBITALS:     0   (    0A'  +    0A"  )
 NUMBER OF OUTER CORE ORBITALS:     2   (    2A'  +    0A"  )
 NUMBER OF VALENCE ORBITALS:        9   (    7A'  +    2A"  )


 NUCLEAR REPULSION ENERGY   24.04636942

 Eigenvalues of metric

         1 0.147E-02 0.224E-02 0.298E-02 0.709E-02 0.107E-01 0.202E-01 0.267E-01 0.390E-01
         2 0.206E-01 0.409E-01 0.749E-01 0.126E+00 0.157E+00 0.283E+00 0.349E+00 0.381E+00


 Contracted 2-electron integrals neglected if value below      1.0D-11
 AO integral compression algorithm  1   Integral accuracy      1.0D-11

     9.437 MB (compressed) written to integral file ( 47.0%)


 NUMBER OF SORTED TWO-ELECTRON INTEGRALS:    2006100.     BUFFER LENGTH:  32768
 NUMBER OF SEGMENTS:   1  SEGMENT LENGTH:    2006100      RECORD LENGTH: 524288

 Memory used in sort:       2.56 MW

 SORT1 READ     2476173. AND WROTE     1539631. INTEGRALS IN      5 RECORDS. CPU TIME:     0.03 SEC, REAL TIME:     0.24 SEC
 SORT2 READ     1539631. AND WROTE     2006100. INTEGRALS IN     36 RECORDS. CPU TIME:     0.08 SEC, REAL TIME:     0.10 SEC

 FILE SIZES:   FILE 1:    39.6 MBYTE,  FILE 4:    21.0 MBYTE,   TOTAL:     60.7 MBYTE

 OPERATOR DM      FOR CENTER  0  COORDINATES:    0.000000    0.000000    0.000000


 **********************************************************************************************************************************
 DATASETS  * FILE   NREC   LENGTH (MB)   RECORD NAMES
              1      19       35.89       500      610      700      900      950      970     1000      129      960     1100   
                                          VAR    BASINP    GEOM    SYMINP    ZMAT    AOBASIS   BASIS     P2S    ABASIS      S 
                                         1400     1410     1200     1210     1080     1600     1650     1300     1700   
                                           T        V       H0       H01     AOSYM     SMH    MOLCAS    ERIS     OPER   

 PROGRAMS   *        TOTAL       INT
 CPU TIMES  *         0.92      0.79
 REAL TIME  *         2.48 SEC
 DISK USED  *        58.21 MB
 **********************************************************************************************************************************


 Program * Restricted Hartree-Fock

 Orbital guess generated from atomic densities. Full valence occupancy:    9   2

 Initial occupancy:   6   1

 NELEC=   14   SYM=1   MS2= 0   THRE=1.0D-08   THRD=3.2D-06   THRG=3.2D-06  HFMA2=F  DIIS_START=2   DIIS_MAX=10   DIIS_INCORE=F

 Level shifts:    0.00 (CLOSED)    0.00 (OPEN)    0.30 (GAP_MIN)

 ITER           ETOT              DE          GRAD        DDIFF     DIIS  NEXP   TIME(IT)  TIME(TOT)  DIAG
   1      -92.81352547     -92.81352547     0.00D+00     0.12D+00     0     0       0.01      0.03    start
   2      -92.82917919      -0.01565372     0.61D-02     0.92D-02     1     0       0.02      0.05    diag
   3      -92.83121527      -0.00203608     0.19D-02     0.24D-02     2     0       0.02      0.07    diag
   4      -92.83193313      -0.00071785     0.91D-03     0.15D-02     3     0       0.02      0.09    diag
   5      -92.83218807      -0.00025494     0.55D-03     0.87D-03     4     0       0.01      0.10    diag
   6      -92.83230473      -0.00011666     0.27D-03     0.83D-03     5     0       0.02      0.12    diag
   7      -92.83231261      -0.00000788     0.73D-04     0.24D-03     6     0       0.01      0.13    diag
   8      -92.83231297      -0.00000036     0.19D-04     0.50D-04     7     0       0.02      0.15    fixocc
   9      -92.83231299      -0.00000002     0.50D-05     0.11D-04     8     0       0.01      0.16    diag
  10      -92.83231300      -0.00000000     0.13D-05     0.26D-05     9     0       0.02      0.18    diag/orth
  11      -92.83231300      -0.00000000     0.37D-06     0.53D-06     0     0       0.01      0.19    diag

 Final occupancy:   6   1

 !RHF STATE 1.1 Energy                -92.832312995659
  RHF One-electron energy            -172.519818974142
  RHF Two-electron energy              55.641136563254
  RHF Kinetic energy                   92.694308174235
  RHF Nuclear energy                   24.046369415229
  RHF Virial quotient                  -1.001488816564

 !RHF STATE 1.1 Dipole moment          -0.51792383     0.01769536     0.00000000
 Dipole moment /Debye                  -1.31643107     0.04497712     0.00000000

 Orbital energies:

           1.1          2.1          3.1          4.1          5.1          6.1          7.1          8.1
    -15.654249   -11.295860    -1.306868    -0.706348    -0.626001    -0.496906     0.101866     0.159572

           1.2          2.2          3.2
     -0.532542     0.159842     0.454466


 HOMO      6.1    -0.496906 =     -13.5215eV
 LUMO      7.1     0.101866 =       2.7719eV
 LUMO-HOMO         0.598772 =      16.2934eV

 Orbitals saved in record  2100.2


 **********************************************************************************************************************************
 DATASETS  * FILE   NREC   LENGTH (MB)   RECORD NAMES
              1      19       35.89       500      610      700      900      950      970     1000      129      960     1100   
                                          VAR    BASINP    GEOM    SYMINP    ZMAT    AOBASIS   BASIS     P2S    ABASIS      S 
                                         1400     1410     1200     1210     1080     1600     1650     1300     1700   
                                           T        V       H0       H01     AOSYM     SMH    MOLCAS    ERIS     OPER   

              2       4        0.47       700     1000      520     2100   
                                         GEOM     BASIS   MCVARS     RHF  

 PROGRAMS   *        TOTAL    HF-SCF       INT
 CPU TIMES  *         1.11      0.19      0.79
 REAL TIME  *         2.82 SEC
 DISK USED  *        58.21 MB
 **********************************************************************************************************************************


 PROGRAM * MP3 (Closed-shell)     Authors: C. Hampel, H.-J. Werner, 1991, M. Deegan, P.J. Knowles, 1992


 Convergence thresholds:  THRVAR = 1.00D-08  THRDEN = 1.00D-06

 Number of core orbitals:           2 (   2   0 )
 Number of closed-shell orbitals:   5 (   4   1 )
 Number of external orbitals:      67 (  44  23 )

 Molecular orbitals read from record     2100.2  Type=RHF/CANONICAL  

 Number of N-1 electron functions:               5
 Number of N-2 electron functions:              15
 Number of singly external CSFs:               199
 Number of doubly external CSFs:             29216
 Total number of CSFs:                       29416

 Length of J-op  integral file:               0.00 MB
 Length of K-op  integral file:               0.27 MB

 Integral transformation finished. Total CPU:   0.03 sec, npass=  1  Memory used:   0.15 MW

 Reference energy:                    -92.83231300

                        CORR.ENERGY   TOTAL ENERGY   ENERGY CHANGE
 MP2:                   -0.33776886   -93.17008186    -0.33776886

 SCS-MP2 correlation energy:           -0.33307423   (PS=  1.200000  PT=  0.333333)
 SCS-MP2 total energy:                -93.16538722

 MP3(D):                -0.34244121   -93.17475420    -0.00467235



 RESULTS
 =======

  Reference energy                    -92.832312995659
  MP3 singlet pair energy              -0.230191061183
  MP3 triplet pair energy              -0.112250146988
  MP3 correlation energy               -0.342441208171

 !MP3 total energy                    -93.174754203830

 Timing summary (sec):

 STEP                 CPU(USER)    SYS     CPU(TOT)    WALL
 Transformation          0.03      0.01      0.04      0.25
 CCSD iterations         1.51      0.00      1.51      0.10

 Program statistics:

 Available memory in ccsd:               805306262
 Min. memory needed in ccsd:                123418
 Max. memory used in ccsd:                  144124
 Max. memory used in cckext:                198953 ( 1 integral passes)



 **********************************************************************************************************************************
 DATASETS  * FILE   NREC   LENGTH (MB)   RECORD NAMES
              1      20       36.44       500      610      700      900      950      970     1000      129      960     1100   
                                          VAR    BASINP    GEOM    SYMINP    ZMAT    AOBASIS   BASIS     P2S    ABASIS      S 
                                         1400     1410     1200     1210     1080     1600     1650     1300     1700     1380   
                                           T        V       H0       H01     AOSYM     SMH    MOLCAS    ERIS     OPER     JKOP   

              2       4        0.47       700     1000      520     2100   
                                         GEOM     BASIS   MCVARS     RHF  

 PROGRAMS   *        TOTAL       MP3    HF-SCF       INT
 CPU TIMES  *         1.24      0.12      0.19      0.79
 REAL TIME  *         3.32 SEC
 DISK USED  *        58.21 MB
 **********************************************************************************************************************************

 Dump information in style XML to xml output                                                                      

 Orbitals will not be exported.

 **********************************************************************************************************************************

 MP3/cc-pVTZ energy=    -93.174754203830

             MP3          HF-SCF
    -93.17475420    -92.83231300
 **********************************************************************************************************************************
 Molpro calculation terminated
