
 Working directory              : /home/jovyan/scratch/molpro.9t9ll1ymfb/
 Global scratch directory       : /home/jovyan/scratch/molpro.9t9ll1ymfb/
 Wavefunction directory         : /home/jovyan/wfu/
 Main file repository           : /home/jovyan/scratch/molpro.9t9ll1ymfb/

 id        : cardiff

 Nodes                nprocs
 jupyter-c-2efrancisan    1
 GA implementation: MPI file
 GA implementation (serial work in mppx): MPI file

 Using customized tuning parameters: mindgm=1; mindgv=20; mindgc=4; mindgr=1; noblas=0; minvec=7
 default implementation of scratch files=df  


 Variables initialized (1031), CPU time= 0.01 sec
 
 
 
 geometry={
 4
  O     0.7209435    0.0000000    0.4642736
  O    -0.7209435    0.0000000    0.4642736
  H     0.9743565    0.0000000   -0.4642670
  H    -0.9743565    0.0000000   -0.4642670
 }
 basis=cc-pVTZ
 angstrom
 
 
 hf; ccsd(t)
 
 
 
 {put,xml;noorbitals,nobasis}
 Commands initialized (841), CPU time= 0.01 sec, 704 directives.
 Default parameters read. Elapsed time= 0.08 sec

 Checking input...
 Passed
1


                                         ***  PROGRAM SYSTEM MOLPRO  ***
                                       Copyright, TTI GmbH Stuttgart, 2015
                                    Version 2023.1 linked Mon Jun  5 13:27:10 2023


 **********************************************************************************************************************************
 LABEL *                                                                                                                                                                 
  (16 PROC) 64 bit serial version                                                        DATE: 02-Aug-23          TIME: 15:48:35  
 **********************************************************************************************************************************

 SHA1:             9738a14712571edd23541b6d7c4f3a3d766f8287
 **********************************************************************************************************************************

 Memory per process:       805 MW
 Total memory per node:   1074 MW
 Total GA space:           268 MW

 GA preallocation disabled
 GA check enabled

 Geometry recognized as XYZ


 Variable memory set to 805.3 MW

 SETTING BASIS          =    CC-PVTZ


 Recomputing integrals since basis changed


 Using spherical harmonics

 Library entry O      S cc-pVTZ              selected for orbital group  1
 Library entry O      P cc-pVTZ              selected for orbital group  1
 Library entry O      D cc-pVTZ              selected for orbital group  1
 Library entry O      F cc-pVTZ              selected for orbital group  1
 Library entry H      S cc-pVTZ              selected for orbital group  2
 Library entry H      P cc-pVTZ              selected for orbital group  2
 Library entry H      D cc-pVTZ              selected for orbital group  2


 PROGRAM * SEWARD (Integral evaluation for generally contracted gaussian basis sets)     Author: Roland Lindh, 1990

 Geometry written to block  1 of record 700


 Point group  C2v 



 ATOMIC COORDINATES

 NR  ATOM    CHARGE       X              Y              Z

   1  O       8.00    1.362385766    0.000000000    0.877349951
   2  O       8.00   -1.362385766    0.000000000    0.877349951
   3  H       1.00    1.841266933    0.000000000   -0.877337479
   4  H       1.00   -1.841266933    0.000000000   -0.877337479

 Bond lengths in Bohr (Angstrom)

 1-2  2.724771533  1-3  1.818860948  2-4  1.818860948
     ( 1.441887000)     ( 0.962499763)     ( 0.962499763)

 Bond angles

  1-2-4  105.26514921   2-1-3  105.26514921

 NUCLEAR CHARGE:                   18
 NUMBER OF PRIMITIVE AOS:         128
 NUMBER OF SYMMETRY AOS:          116
 NUMBER OF CONTRACTIONS:           88   (   30A1  +   30B1  +   14B2  +   14A2  )
 NUMBER OF INNER CORE ORBITALS:     0   (    0A1  +    0B1  +    0B2  +    0A2  )
 NUMBER OF OUTER CORE ORBITALS:     2   (    1A1  +    1B1  +    0B2  +    0A2  )
 NUMBER OF VALENCE ORBITALS:       10   (    4A1  +    4B1  +    1B2  +    1A2  )


 NUCLEAR REPULSION ENERGY   36.93677898

 Eigenvalues of metric

         1 0.419E-02 0.701E-02 0.112E-01 0.460E-01 0.542E-01 0.103E+00 0.125E+00 0.151E+00
         2 0.198E-02 0.481E-02 0.830E-02 0.180E-01 0.390E-01 0.444E-01 0.730E-01 0.782E-01
         3 0.452E-01 0.132E+00 0.286E+00 0.486E+00 0.501E+00 0.590E+00 0.778E+00 0.109E+01
         4 0.432E-01 0.963E-01 0.171E+00 0.300E+00 0.378E+00 0.524E+00 0.718E+00 0.860E+00


 Contracted 2-electron integrals neglected if value below      1.0D-11
 AO integral compression algorithm  1   Integral accuracy      1.0D-11

     12.321 MB (compressed) written to integral file ( 51.1%)


 NUMBER OF SORTED TWO-ELECTRON INTEGRALS:    2024670.     BUFFER LENGTH:  32768
 NUMBER OF SEGMENTS:   1  SEGMENT LENGTH:    2024670      RECORD LENGTH: 524288

 Memory used in sort:       2.58 MW

 SORT1 READ     3036152. AND WROTE     1794902. INTEGRALS IN      6 RECORDS. CPU TIME:     0.06 SEC, REAL TIME:     0.32 SEC
 SORT2 READ     1794902. AND WROTE     2024670. INTEGRALS IN     47 RECORDS. CPU TIME:     0.08 SEC, REAL TIME:     0.10 SEC

 FILE SIZES:   FILE 1:    42.5 MBYTE,  FILE 4:    25.2 MBYTE,   TOTAL:     67.8 MBYTE

 OPERATOR DM      FOR CENTER  0  COORDINATES:    0.000000    0.000000    0.000000


 **********************************************************************************************************************************
 DATASETS  * FILE   NREC   LENGTH (MB)   RECORD NAMES
              1      19       36.97       500      610      700      900      950      970     1000      129      960     1100   
                                          VAR    BASINP    GEOM    SYMINP    ZMAT    AOBASIS   BASIS     P2S    ABASIS      S 
                                         1400     1410     1200     1210     1080     1600     1650     1300     1700   
                                           T        V       H0       H01     AOSYM     SMH    MOLCAS    ERIS     OPER   

 PROGRAMS   *        TOTAL       INT
 CPU TIMES  *         1.08      0.94
 REAL TIME  *         3.40 SEC
 DISK USED  *        65.02 MB
 **********************************************************************************************************************************


 Program * Restricted Hartree-Fock

 Orbital guess generated from atomic densities. Full valence occupancy:    5   5   1   1

 Initial occupancy:   4   3   1   1

 NELEC=   18   SYM=1   MS2= 0   THRE=1.0D-08   THRD=3.2D-06   THRG=3.2D-06  HFMA2=F  DIIS_START=2   DIIS_MAX=10   DIIS_INCORE=F

 Level shifts:    0.00 (CLOSED)    0.00 (OPEN)    0.30 (GAP_MIN)

 ITER           ETOT              DE          GRAD        DDIFF     DIIS  NEXP   TIME(IT)  TIME(TOT)  DIAG
   1     -150.79075950    -150.79075950     0.00D+00     0.17D+00     0     0       0.02      0.03    start
   2     -150.82322915      -0.03246965     0.14D-01     0.17D-01     1     0       0.01      0.04    diag
   3     -150.82499094      -0.00176179     0.36D-02     0.28D-02     2     0       0.01      0.05    diag
   4     -150.82516718      -0.00017624     0.93D-03     0.12D-02     3     0       0.01      0.06    diag
   5     -150.82519189      -0.00002471     0.33D-03     0.37D-03     4     0       0.01      0.07    diag
   6     -150.82519357      -0.00000169     0.64D-04     0.10D-03     5     0       0.02      0.09    diag
   7     -150.82519362      -0.00000004     0.98D-05     0.19D-04     6     0       0.01      0.10    diag
   8     -150.82519362      -0.00000000     0.14D-05     0.27D-05     7     0       0.01      0.11    fixocc
   9     -150.82519362      -0.00000000     0.40D-06     0.53D-06     0     0       0.01      0.12    diag

 Final occupancy:   4   3   1   1

 !RHF STATE 1.1 Energy               -150.825193618016
  RHF One-electron energy            -281.572076272968
  RHF Two-electron energy              93.810103672057
  RHF Kinetic energy                  150.637651395471
  RHF Nuclear energy                   36.936778982895
  RHF Virial quotient                  -1.001244989024

 !RHF STATE 1.1 Dipole moment           0.00000000     0.00000000    -1.29841433
 Dipole moment /Debye                   0.00000000     0.00000000    -3.30024004

 Orbital energies:

           1.1          2.1          3.1          4.1          5.1          6.1
    -20.627163    -1.476220    -0.768021    -0.598977     0.122906     0.528932

           1.2          2.2          3.2          4.2          5.2
    -20.626883    -1.214107    -0.577898     0.159772     0.304303

           1.3          2.3          3.3
     -0.629307     0.742258     0.832538

           1.4          2.4          3.4
     -0.457361     0.837466     0.977401


 HOMO      1.4    -0.457361 =     -12.4454eV
 LUMO      5.1     0.122906 =       3.3444eV
 LUMO-HOMO         0.580267 =      15.7899eV

 Orbitals saved in record  2100.2


 **********************************************************************************************************************************
 DATASETS  * FILE   NREC   LENGTH (MB)   RECORD NAMES
              1      19       36.97       500      610      700      900      950      970     1000      129      960     1100   
                                          VAR    BASINP    GEOM    SYMINP    ZMAT    AOBASIS   BASIS     P2S    ABASIS      S 
                                         1400     1410     1200     1210     1080     1600     1650     1300     1700   
                                           T        V       H0       H01     AOSYM     SMH    MOLCAS    ERIS     OPER   

              2       4        0.47       700     1000      520     2100   
                                         GEOM     BASIS   MCVARS     RHF  

 PROGRAMS   *        TOTAL    HF-SCF       INT
 CPU TIMES  *         1.20      0.12      0.94
 REAL TIME  *         3.65 SEC
 DISK USED  *        65.02 MB
 **********************************************************************************************************************************


 PROGRAM * CCSD (Closed-shell coupled cluster)     Authors: C. Hampel, H.-J. Werner, 1991, M. Deegan, P.J. Knowles, 1992


 Convergence thresholds:  THRVAR = 1.00D-08  THRDEN = 1.00D-06

 CCSD(T)     terms to be evaluated (factor= 1.000)


 Number of core orbitals:           2 (   1   1   0   0 )
 Number of closed-shell orbitals:   7 (   3   2   1   1 )
 Number of external orbitals:      79 (  26  27  13  13 )

 Molecular orbitals read from record     2100.2  Type=RHF/CANONICAL  

 Number of N-1 electron functions:               7
 Number of N-2 electron functions:              28
 Number of singly external CSFs:               158
 Number of doubly external CSFs:             39323
 Total number of CSFs:                       39482

 Length of J-op  integral file:               0.00 MB
 Length of K-op  integral file:               0.21 MB
 Length of 3-ext integral record:             0.00 MB

 Memory could be reduced to 1.36 Mwords without degradation in triples

 Integral transformation finished. Total CPU:   0.05 sec, npass=  1  Memory used:   0.34 MW

 Reference energy:                   -150.82519362

 MP2 singlet pair energy:              -0.31094342
 MP2 triplet pair energy:              -0.18429622
 MP2 correlation energy:               -0.49523964
 MP2 total energy:                   -151.32043326

 SCS-MP2 correlation energy:           -0.48780531   (PS=  1.200000  PT=  0.333333)
 SCS-MP2 total energy:               -151.31299893

 ITER.      SQ.NORM     CORR.ENERGY   TOTAL ENERGY   ENERGY CHANGE        DEN1      VAR(S)    VAR(P)  DIIS     TIME  TIME/IT
   1      1.11787642    -0.50208315  -151.32727677    -0.00684352     0.00582250  0.15D-02  0.22D-02  1  1     1.64     0.10
   2      1.12604585    -0.50281632  -151.32800994    -0.00073317    -0.01068914  0.36D-04  0.30D-03  2  2     1.71     0.09
   3      1.12947785    -0.50294058  -151.32813420    -0.00012426    -0.00224415  0.13D-04  0.18D-04  3  3     1.78     0.09
   4      1.13063726    -0.50298734  -151.32818096    -0.00004676    -0.00054012  0.18D-05  0.18D-05  4  4     1.85     0.09
   5      1.13092156    -0.50298681  -151.32818043     0.00000053    -0.00008988  0.67D-06  0.19D-06  5  5     1.91     0.09
   6      1.13099937    -0.50298486  -151.32817848     0.00000195    -0.00000572  0.98D-07  0.33D-07  6  6     1.98     0.08
   7      1.13102264    -0.50298565  -151.32817927    -0.00000079    -0.00000143  0.13D-07  0.56D-08  6  1     2.04     0.08
   8      1.13102882    -0.50298551  -151.32817913     0.00000015     0.00000221  0.12D-08  0.66D-09  6  2     2.11     0.08

 Norm of t1 vector:      0.05221562      S-energy:    -0.00000085      T1 diagnostic:  0.00986782
                                                                       D1 diagnostic:  0.02132297
                                                                       D2 diagnostic:  0.17334988 (internal)

 Doubles amplitudes (print threshold =  0.500E-01):

         I         J         SYM. A    SYM. B    A         B      T(IJ, AB)

         3         3         2         2         2         2     -0.07095413


 Total CPU time for triples:      0.39 sec


 RESULTS
 =======

  Reference energy                   -150.825193618016
  CCSD singlet pair energy             -0.341574432233
  CCSD triplet pair energy             -0.161410226469
  CCSD correlation energy              -0.502985507207

  Triples (T) contribution             -0.018292703851
  Total correlation energy             -0.521278211059

  CCSD total energy                  -151.328179125223
  CCSD[T] energy                     -151.347028378916
  CCSD-T energy                      -151.346147654191
 !CCSD(T) total energy               -151.346471829075

 Timing summary (sec):

 STEP                 CPU(USER)    SYS     CPU(TOT)    WALL
 Transformation          0.05      0.01      0.06      0.22
 CCSD iterations         2.07      0.09      2.16      0.68
 Triples                 0.39      0.01      0.40      0.43

 Program statistics:

 Available memory in ccsd:               805306168
 Min. memory needed in ccsd:                134601
 Max. memory used in ccsd:                  165586
 Max. memory used in cckext:                185023 ( 8 integral passes)



 **********************************************************************************************************************************
 DATASETS  * FILE   NREC   LENGTH (MB)   RECORD NAMES
              1      20       41.05       500      610      700      900      950      970     1000      129      960     1100   
                                          VAR    BASINP    GEOM    SYMINP    ZMAT    AOBASIS   BASIS     P2S    ABASIS      S 
                                         1400     1410     1200     1210     1080     1600     1650     1300     1700     1380   
                                           T        V       H0       H01     AOSYM     SMH    MOLCAS    ERIS     OPER     JKOP   

              2       4        0.47       700     1000      520     2100   
                                         GEOM     BASIS   MCVARS     RHF  

 PROGRAMS   *        TOTAL   CCSD(T)    HF-SCF       INT
 CPU TIMES  *         2.22      1.00      0.12      0.94
 REAL TIME  *         5.02 SEC
 DISK USED  *        65.02 MB
 **********************************************************************************************************************************

 Dump information in style XML to xml output                                                                      

 Orbitals will not be exported.

 **********************************************************************************************************************************

 CCSD(T)/cc-pVTZ energy=   -151.346471829075

         CCSD(T)          HF-SCF
   -151.34647183   -150.82519362
 **********************************************************************************************************************************
 Molpro calculation terminated
