
 Working directory              : /home/jovyan/scratch/molpro.7niUUOBw2B/
 Global scratch directory       : /home/jovyan/scratch/molpro.7niUUOBw2B/
 Wavefunction directory         : /home/jovyan/wfu/
 Main file repository           : /home/jovyan/scratch/molpro.7niUUOBw2B/

 id        : cardiff

 Nodes                nprocs
 jupyter-c-2efrancisan    1
 GA implementation: MPI file
 GA implementation (serial work in mppx): MPI file

 Using customized tuning parameters: mindgm=1; mindgv=20; mindgc=4; mindgr=1; noblas=0; minvec=7
 default implementation of scratch files=df  


 Variables initialized (1031), CPU time= 0.00 sec
 
 
 
 geometry={
 4
  O     0.0402907   -0.7150390   -0.2337508
  O    -0.0402907    0.7150390   -0.2337508
  H    -0.7702468   -0.9380581    0.2337569
  H     0.7702468    0.9380581    0.2337569
 }
 basis=cc-pVTZ
 angstrom
 
 
 hf; ccsd(t)
 
 
 
 {put,xml;noorbitals,nobasis}
 Commands initialized (841), CPU time= 0.01 sec, 704 directives.
 Default parameters read. Elapsed time= 0.08 sec

 Checking input...
 Passed
1


                                         ***  PROGRAM SYSTEM MOLPRO  ***
                                       Copyright, TTI GmbH Stuttgart, 2015
                                    Version 2023.1 linked Mon Jun  5 13:27:10 2023


 **********************************************************************************************************************************
 LABEL *                                                                                                                                                                 
  (16 PROC) 64 bit serial version                                                        DATE: 02-Aug-23          TIME: 15:48:21  
 **********************************************************************************************************************************

 SHA1:             9738a14712571edd23541b6d7c4f3a3d766f8287
 **********************************************************************************************************************************

 Memory per process:       805 MW
 Total memory per node:   1074 MW
 Total GA space:           268 MW

 GA preallocation disabled
 GA check enabled

 Geometry recognized as XYZ


 Variable memory set to 805.3 MW

 SETTING BASIS          =    CC-PVTZ


 Recomputing integrals since basis changed


 Using spherical harmonics

 Library entry O      S cc-pVTZ              selected for orbital group  1
 Library entry O      P cc-pVTZ              selected for orbital group  1
 Library entry O      D cc-pVTZ              selected for orbital group  1
 Library entry O      F cc-pVTZ              selected for orbital group  1
 Library entry H      S cc-pVTZ              selected for orbital group  2
 Library entry H      P cc-pVTZ              selected for orbital group  2
 Library entry H      D cc-pVTZ              selected for orbital group  2


 PROGRAM * SEWARD (Integral evaluation for generally contracted gaussian basis sets)     Author: Roland Lindh, 1990

 Geometry written to block  1 of record 700


 Point group  C2  



 ATOMIC COORDINATES

 NR  ATOM    CHARGE       X              Y              Z

   1  O       8.00    0.076138388   -1.351227878   -0.441724993
   2  O       8.00   -0.076138388    1.351227878   -0.441724993
   3  H       1.00   -1.455555500   -1.772672898    0.441736521
   4  H       1.00    1.455555500    1.772672898    0.441736521

 Bond lengths in Bohr (Angstrom)

 1-2  2.706742569  1-3  1.817747595  2-4  1.817747595
     ( 1.432346483)     ( 0.961910603)     ( 0.961910603)

 Bond angles

  1-2-4  100.60737277   2-1-3  100.60737277

 NUCLEAR CHARGE:                   18
 NUMBER OF PRIMITIVE AOS:         128
 NUMBER OF SYMMETRY AOS:          116
 NUMBER OF CONTRACTIONS:           88   (   44A   +   44B   )
 NUMBER OF INNER CORE ORBITALS:     0   (    0A   +    0B   )
 NUMBER OF OUTER CORE ORBITALS:     2   (    1A   +    1B   )
 NUMBER OF VALENCE ORBITALS:       10   (    5A   +    5B   )


 NUCLEAR REPULSION ENERGY   37.20075843

 Eigenvalues of metric

         1 0.289E-02 0.664E-02 0.107E-01 0.426E-01 0.458E-01 0.499E-01 0.818E-01 0.875E-01
         2 0.310E-02 0.487E-02 0.860E-02 0.186E-01 0.430E-01 0.462E-01 0.513E-01 0.859E-01


 Contracted 2-electron integrals neglected if value below      1.0D-11
 AO integral compression algorithm  1   Integral accuracy      1.0D-11

     23.331 MB (compressed) written to integral file ( 48.4%)


 NUMBER OF SORTED TWO-ELECTRON INTEGRALS:    3921390.     BUFFER LENGTH:  32768
 NUMBER OF SEGMENTS:   1  SEGMENT LENGTH:    3921390      RECORD LENGTH: 524288

 Memory used in sort:       4.48 MW

 SORT1 READ     5967112. AND WROTE     3476590. INTEGRALS IN     10 RECORDS. CPU TIME:     0.05 SEC, REAL TIME:     0.22 SEC
 SORT2 READ     3476590. AND WROTE     3921390. INTEGRALS IN     89 RECORDS. CPU TIME:     0.14 SEC, REAL TIME:     0.17 SEC

 FILE SIZES:   FILE 1:    53.6 MBYTE,  FILE 4:    42.0 MBYTE,   TOTAL:     95.6 MBYTE

 OPERATOR DM      FOR CENTER  0  COORDINATES:    0.000000    0.000000    0.000000


 **********************************************************************************************************************************
 DATASETS  * FILE   NREC   LENGTH (MB)   RECORD NAMES
              1      19       44.15       500      610      700      900      950      970     1000      129      960     1100   
                                          VAR    BASINP    GEOM    SYMINP    ZMAT    AOBASIS   BASIS     P2S    ABASIS      S 
                                         1400     1410     1200     1210     1080     1600     1650     1300     1700   
                                           T        V       H0       H01     AOSYM     SMH    MOLCAS    ERIS     OPER   

 PROGRAMS   *        TOTAL       INT
 CPU TIMES  *         1.25      1.12
 REAL TIME  *         2.74 SEC
 DISK USED  *        91.54 MB
 **********************************************************************************************************************************


 Program * Restricted Hartree-Fock

 Orbital guess generated from atomic densities. Full valence occupancy:    6   6

 Initial occupancy:   5   4

 NELEC=   18   SYM=1   MS2= 0   THRE=1.0D-08   THRD=3.2D-06   THRG=3.2D-06  HFMA2=F  DIIS_START=2   DIIS_MAX=10   DIIS_INCORE=F

 Level shifts:    0.00 (CLOSED)    0.00 (OPEN)    0.30 (GAP_MIN)

 ITER           ETOT              DE          GRAD        DDIFF     DIIS  NEXP   TIME(IT)  TIME(TOT)  DIAG
   1     -150.81001152    -150.81001152     0.00D+00     0.13D+00     0     0       0.02      0.04    start
   2     -150.83618256      -0.02617103     0.99D-02     0.12D-01     1     0       0.03      0.07    diag
   3     -150.83727874      -0.00109618     0.21D-02     0.18D-02     2     0       0.03      0.10    diag
   4     -150.83740263      -0.00012389     0.54D-03     0.74D-03     3     0       0.03      0.13    diag
   5     -150.83741722      -0.00001460     0.20D-03     0.21D-03     4     0       0.02      0.15    diag
   6     -150.83741853      -0.00000131     0.45D-04     0.57D-04     5     0       0.03      0.18    diag
   7     -150.83741860      -0.00000007     0.89D-05     0.13D-04     6     0       0.02      0.20    diag
   8     -150.83741860      -0.00000000     0.21D-05     0.40D-05     7     0       0.03      0.23    fixocc
   9     -150.83741860      -0.00000000     0.57D-06     0.10D-05     8     0       0.03      0.26    diag
  10     -150.83741860      -0.00000000     0.13D-06     0.17D-06     0     0       0.03      0.29    diag/orth

 Final occupancy:   5   4

 !RHF STATE 1.1 Energy               -150.837418600472
  RHF One-electron energy            -282.142508416886
  RHF Two-electron energy              94.104331384106
  RHF Kinetic energy                  150.656022436377
  RHF Nuclear energy                   37.200758432308
  RHF Virial quotient                  -1.001204041904

 !RHF STATE 1.1 Dipole moment           0.00000000     0.00000000     0.67178741
 Dipole moment /Debye                   0.00000000     0.00000000     1.70751329

 Orbital energies:

           1.1          2.1          3.1          4.1          5.1          6.1          7.1
    -20.624075    -1.480268    -0.709361    -0.612689    -0.518993     0.149764     0.576794

           1.2          2.2          3.2          4.2          5.2          6.2
    -20.623778    -1.208889    -0.713936    -0.474936     0.158828     0.291533


 HOMO      4.2    -0.474936 =     -12.9237eV
 LUMO      6.1     0.149764 =       4.0753eV
 LUMO-HOMO         0.624700 =      16.9990eV

 Orbitals saved in record  2100.2


 **********************************************************************************************************************************
 DATASETS  * FILE   NREC   LENGTH (MB)   RECORD NAMES
              1      19       44.15       500      610      700      900      950      970     1000      129      960     1100   
                                          VAR    BASINP    GEOM    SYMINP    ZMAT    AOBASIS   BASIS     P2S    ABASIS      S 
                                         1400     1410     1200     1210     1080     1600     1650     1300     1700   
                                           T        V       H0       H01     AOSYM     SMH    MOLCAS    ERIS     OPER   

              2       4        0.50       700     1000      520     2100   
                                         GEOM     BASIS   MCVARS     RHF  

 PROGRAMS   *        TOTAL    HF-SCF       INT
 CPU TIMES  *         1.54      0.29      1.12
 REAL TIME  *         3.21 SEC
 DISK USED  *        91.54 MB
 **********************************************************************************************************************************


 PROGRAM * CCSD (Closed-shell coupled cluster)     Authors: C. Hampel, H.-J. Werner, 1991, M. Deegan, P.J. Knowles, 1992


 Convergence thresholds:  THRVAR = 1.00D-08  THRDEN = 1.00D-06

 CCSD(T)     terms to be evaluated (factor= 1.000)


 Number of core orbitals:           2 (   1   1 )
 Number of closed-shell orbitals:   7 (   4   3 )
 Number of external orbitals:      79 (  39  40 )

 Molecular orbitals read from record     2100.2  Type=RHF/CANONICAL  

 Number of N-1 electron functions:               7
 Number of N-2 electron functions:              28
 Number of singly external CSFs:               276
 Number of doubly external CSFs:             76729
 Total number of CSFs:                       77006

 Length of J-op  integral file:               0.00 MB
 Length of K-op  integral file:               0.33 MB
 Length of 3-ext integral record:             0.00 MB

 Memory could be reduced to 2.61 Mwords without degradation in triples

 Integral transformation finished. Total CPU:   0.12 sec, npass=  1  Memory used:   1.20 MW

 Reference energy:                   -150.83741860

 MP2 singlet pair energy:              -0.31059962
 MP2 triplet pair energy:              -0.18445819
 MP2 correlation energy:               -0.49505781
 MP2 total energy:                   -151.33247641

 SCS-MP2 correlation energy:           -0.48749353   (PS=  1.200000  PT=  0.333333)
 SCS-MP2 total energy:               -151.32491213

 ITER.      SQ.NORM     CORR.ENERGY   TOTAL ENERGY   ENERGY CHANGE        DEN1      VAR(S)    VAR(P)  DIIS     TIME  TIME/IT
   1      1.11707580    -0.50178670  -151.33920530    -0.00672889     0.00588460  0.15D-02  0.22D-02  1  1     2.12     0.15
   2      1.12516684    -0.50249699  -151.33991559    -0.00071029    -0.01067098  0.35D-04  0.29D-03  2  2     2.26     0.15
   3      1.12849251    -0.50262521  -151.34004381    -0.00012821    -0.00217308  0.12D-04  0.18D-04  3  3     2.41     0.16
   4      1.12962387    -0.50266836  -151.34008696    -0.00004315    -0.00054926  0.12D-05  0.17D-05  4  4     2.55     0.16
   5      1.12988312    -0.50266616  -151.34008476     0.00000220    -0.00009004  0.42D-06  0.14D-06  5  5     2.69     0.16
   6      1.12994314    -0.50266378  -151.34008238     0.00000239    -0.00000792  0.67D-07  0.20D-07  6  6     2.83     0.16
   7      1.12995847    -0.50266446  -151.34008306    -0.00000069    -0.00000161  0.14D-07  0.36D-08  6  1     2.97     0.16
   8      1.12996262    -0.50266439  -151.34008299     0.00000008     0.00000182  0.30D-08  0.65D-09  6  2     3.11     0.16

 Norm of t1 vector:      0.05148500      S-energy:    -0.00000063      T1 diagnostic:  0.00972975
                                                                       D1 diagnostic:  0.02108589
                                                                       D2 diagnostic:  0.17240028 (internal)

 Doubles amplitudes (print threshold =  0.500E-01):

         I         J         SYM. A    SYM. B    A         B      T(IJ, AB)

         3         3         2         2         2         2     -0.05321232


 Total CPU time for triples:      0.87 sec


 RESULTS
 =======

  Reference energy                   -150.837418600472
  CCSD singlet pair energy             -0.341071219347
  CCSD triplet pair energy             -0.161592538657
  CCSD correlation energy              -0.502664388185

  Triples (T) contribution             -0.018104980047
  Total correlation energy             -0.520769368232

  CCSD total energy                  -151.340082988657
  CCSD[T] energy                     -151.358735055552
  CCSD-T energy                      -151.357869264588
 !CCSD(T) total energy               -151.358187968704

 Timing summary (sec):

 STEP                 CPU(USER)    SYS     CPU(TOT)    WALL
 Transformation          0.12      0.02      0.14      0.37
 CCSD iterations         3.00      0.11      3.11      1.27
 Triples                 0.87      0.05      0.92      0.93

 Program statistics:

 Available memory in ccsd:               805306167
 Min. memory needed in ccsd:                255194
 Max. memory used in ccsd:                  315742
 Max. memory used in cckext:                357901 ( 8 integral passes)



 **********************************************************************************************************************************
 DATASETS  * FILE   NREC   LENGTH (MB)   RECORD NAMES
              1      20       52.12       500      610      700      900      950      970     1000      129      960     1100   
                                          VAR    BASINP    GEOM    SYMINP    ZMAT    AOBASIS   BASIS     P2S    ABASIS      S 
                                         1400     1410     1200     1210     1080     1600     1650     1300     1700     1380   
                                           T        V       H0       H01     AOSYM     SMH    MOLCAS    ERIS     OPER     JKOP   

              2       4        0.50       700     1000      520     2100   
                                         GEOM     BASIS   MCVARS     RHF  

 PROGRAMS   *        TOTAL   CCSD(T)    HF-SCF       INT
 CPU TIMES  *         3.72      2.17      0.29      1.12
 REAL TIME  *         5.83 SEC
 DISK USED  *        91.54 MB
 **********************************************************************************************************************************

 Dump information in style XML to xml output                                                                      

 Orbitals will not be exported.

 **********************************************************************************************************************************

 CCSD(T)/cc-pVTZ energy=   -151.358187968704

         CCSD(T)          HF-SCF
   -151.35818797   -150.83741860
 **********************************************************************************************************************************
 Molpro calculation terminated
