
 Working directory              : /home/jovyan/scratch/molpro.hTaIEQFq9Y/
 Global scratch directory       : /home/jovyan/scratch/molpro.hTaIEQFq9Y/
 Wavefunction directory         : /home/jovyan/wfu/
 Main file repository           : /home/jovyan/scratch/molpro.hTaIEQFq9Y/

 id        : cardiff

 Nodes                nprocs
 jupyter-c-2efrancisan    1
 GA implementation: MPI file
 GA implementation (serial work in mppx): MPI file

 Using customized tuning parameters: mindgm=1; mindgv=20; mindgc=4; mindgr=1; noblas=0; minvec=7
 default implementation of scratch files=df  


 Variables initialized (1031), CPU time= 0.00 sec
 
 
 
 geometry={
 6
  C    -0.0000000    0.0000000   -0.4861410
  C     0.0000000    0.0000000    0.9653746
  N     0.0000000    0.0000000    2.1145426
  H    -0.5102145    0.8837175   -0.8645921
  H    -0.5102145   -0.8837175   -0.8645921
  H     1.0204291    0.0000000   -0.8645921
 }
 basis=cc-pVDZ
 angstrom
 
 
 hf; ccsd
 
 
 
 {put,xml;noorbitals,nobasis}
 Commands initialized (841), CPU time= 0.01 sec, 704 directives.
 Default parameters read. Elapsed time= 0.08 sec

 Checking input...
 Passed
1


                                         ***  PROGRAM SYSTEM MOLPRO  ***
                                       Copyright, TTI GmbH Stuttgart, 2015
                                    Version 2023.1 linked Mon Jun  5 13:27:10 2023


 **********************************************************************************************************************************
 LABEL *                                                                                                                                                                 
  (16 PROC) 64 bit serial version                                                        DATE: 02-Aug-23          TIME: 15:49:54  
 **********************************************************************************************************************************

 SHA1:             9738a14712571edd23541b6d7c4f3a3d766f8287
 **********************************************************************************************************************************

 Memory per process:       805 MW
 Total memory per node:   1074 MW
 Total GA space:           268 MW

 GA preallocation disabled
 GA check enabled

 Geometry recognized as XYZ


 Variable memory set to 805.3 MW

 SETTING BASIS          =    CC-PVDZ


 Recomputing integrals since basis changed


 Using spherical harmonics

 Library entry C      S cc-pVDZ              selected for orbital group  1
 Library entry C      P cc-pVDZ              selected for orbital group  1
 Library entry C      D cc-pVDZ              selected for orbital group  1
 Library entry N      S cc-pVDZ              selected for orbital group  2
 Library entry N      P cc-pVDZ              selected for orbital group  2
 Library entry N      D cc-pVDZ              selected for orbital group  2
 Library entry H      S cc-pVDZ              selected for orbital group  3
 Library entry H      P cc-pVDZ              selected for orbital group  3


 PROGRAM * SEWARD (Integral evaluation for generally contracted gaussian basis sets)     Author: Roland Lindh, 1990

 Geometry written to block  1 of record 700


 Point group  Cs  



 ATOMIC COORDINATES

 NR  ATOM    CHARGE       X              Y              Z

   1  C       6.00   -0.000000000    0.000000000   -0.918673348
   2  C       6.00    0.000000000    0.000000000    1.824293602
   3  N       7.00    0.000000000    0.000000000    3.995906393
   4  H       1.00   -0.964165670    1.669984047   -1.633842279
   5  H       1.00   -0.964165670   -1.669984047   -1.633842279
   6  H       1.00    1.928331529    0.000000000   -1.633842279

 Bond lengths in Bohr (Angstrom)

 1-2  2.742966950  1-4  2.056679059  1-5  2.056679059  1-6  2.056679140  2-3  2.171612791
     ( 1.451515600)     ( 1.088347688)     ( 1.088347688)     ( 1.088347731)     ( 1.149168000)

 Bond angles

  1-2-3  180.00000000   2-1-4  110.34853214   2-1-5  110.34853214   2-1-6  110.34853131

  4-1-5  108.57984293   4-1-6  108.57983908   5-1-6  108.57983908

 NUCLEAR CHARGE:                   22
 NUMBER OF PRIMITIVE AOS:         102
 NUMBER OF SYMMETRY AOS:           99
 NUMBER OF CONTRACTIONS:           57   (   39A'  +   18A"  )
 NUMBER OF INNER CORE ORBITALS:     0   (    0A'  +    0A"  )
 NUMBER OF OUTER CORE ORBITALS:     3   (    3A'  +    0A"  )
 NUMBER OF VALENCE ORBITALS:       15   (   11A'  +    4A"  )


 NUCLEAR REPULSION ENERGY   58.73613369


 Eigenvalues of metric

         1 0.262E-02 0.600E-02 0.165E-01 0.350E-01 0.360E-01 0.393E-01 0.455E-01 0.586E-01
         2 0.360E-01 0.393E-01 0.955E-01 0.142E+00 0.185E+00 0.207E+00 0.346E+00 0.443E+00


 Contracted 2-electron integrals neglected if value below      1.0D-11
 AO integral compression algorithm  1   Integral accuracy      1.0D-11

     3.408 MB (compressed) written to integral file ( 50.3%)


 NUMBER OF SORTED TWO-ELECTRON INTEGRALS:     719436.     BUFFER LENGTH:  32768
 NUMBER OF SEGMENTS:   1  SEGMENT LENGTH:     719436      RECORD LENGTH: 524288

 Memory used in sort:       1.28 MW

 SORT1 READ      864186. AND WROTE      598533. INTEGRALS IN      2 RECORDS. CPU TIME:     0.01 SEC, REAL TIME:     0.09 SEC
 SORT2 READ      598533. AND WROTE      719436. INTEGRALS IN     13 RECORDS. CPU TIME:     0.04 SEC, REAL TIME:     0.04 SEC

 FILE SIZES:   FILE 1:    33.6 MBYTE,  FILE 4:     8.5 MBYTE,   TOTAL:     42.0 MBYTE

 OPERATOR DM      FOR CENTER  0  COORDINATES:    0.000000    0.000000    0.000000


 **********************************************************************************************************************************
 DATASETS  * FILE   NREC   LENGTH (MB)   RECORD NAMES
              1      19       31.39       500      610      700      900      950      970     1000      129      960     1100   
                                          VAR    BASINP    GEOM    SYMINP    ZMAT    AOBASIS   BASIS     P2S    ABASIS      S 
                                         1400     1410     1200     1210     1080     1600     1650     1300     1700   
                                           T        V       H0       H01     AOSYM     SMH    MOLCAS    ERIS     OPER   

 PROGRAMS   *        TOTAL       INT
 CPU TIMES  *         0.77      0.62
 REAL TIME  *         2.97 SEC
 DISK USED  *        40.49 MB
 **********************************************************************************************************************************


 Program * Restricted Hartree-Fock

 Orbital guess generated from atomic densities. Full valence occupancy:   14   4

 Initial occupancy:   9   2

 NELEC=   22   SYM=1   MS2= 0   THRE=1.0D-08   THRD=3.2D-06   THRG=3.2D-06  HFMA2=F  DIIS_START=2   DIIS_MAX=10   DIIS_INCORE=F

 Level shifts:    0.00 (CLOSED)    0.00 (OPEN)    0.30 (GAP_MIN)

 ITER           ETOT              DE          GRAD        DDIFF     DIIS  NEXP   TIME(IT)  TIME(TOT)  DIAG
   1     -131.89025721    -131.89025721     0.00D+00     0.19D+00     0     0       0.01      0.01    start
   2     -131.91695577      -0.02669856     0.11D-01     0.27D-01     1     0       0.01      0.02    diag
   3     -131.93691437      -0.01995860     0.88D-02     0.12D-01     2     0       0.01      0.03    diag
   4     -131.93806853      -0.00115416     0.14D-02     0.34D-02     3     0       0.00      0.03    diag
   5     -131.93812868      -0.00006015     0.30D-03     0.81D-03     4     0       0.01      0.04    diag
   6     -131.93813255      -0.00000387     0.85D-04     0.27D-03     5     0       0.01      0.05    diag
   7     -131.93813277      -0.00000022     0.24D-04     0.45D-04     6     0       0.00      0.05    diag
   8     -131.93813279      -0.00000002     0.61D-05     0.15D-04     7     0       0.01      0.06    fixocc
   9     -131.93813279      -0.00000000     0.12D-05     0.33D-05     8     0       0.01      0.07    diag
  10     -131.93813279      -0.00000000     0.19D-06     0.76D-06     9     0       0.00      0.07    diag/orth
  11     -131.93813279      -0.00000000     0.32D-07     0.70D-07     0     0       0.01      0.08    diag

 Final occupancy:   9   2

 !RHF STATE 1.1 Energy               -131.938132792696
  RHF One-electron energy            -293.688698910831
  RHF Two-electron energy             103.014432430232
  RHF Kinetic energy                  131.761149294319
  RHF Nuclear energy                   58.736133687904
  RHF Virial quotient                  -1.001343214592

 !RHF STATE 1.1 Dipole moment           0.00000001     0.00000000    -1.58372248
 Dipole moment /Debye                   0.00000002     0.00000000    -4.02542104

 Orbital energies:

           1.1          2.1          3.1          4.1          5.1          6.1          7.1          8.1          9.1         10.1
    -15.573648   -11.289377   -11.280285    -1.222740    -1.041157    -0.697495    -0.627331    -0.552192    -0.459181     0.164896

          11.1
      0.195847

           1.2          2.2          3.2          4.2
     -0.627331    -0.459181     0.195847     0.268774


 HOMO      9.1    -0.459181 =     -12.4949eV
 LUMO     10.1     0.164896 =       4.4871eV
 LUMO-HOMO         0.624077 =      16.9820eV

 Orbitals saved in record  2100.2


 **********************************************************************************************************************************
 DATASETS  * FILE   NREC   LENGTH (MB)   RECORD NAMES
              1      19       31.39       500      610      700      900      950      970     1000      129      960     1100   
                                          VAR    BASINP    GEOM    SYMINP    ZMAT    AOBASIS   BASIS     P2S    ABASIS      S 
                                         1400     1410     1200     1210     1080     1600     1650     1300     1700   
                                           T        V       H0       H01     AOSYM     SMH    MOLCAS    ERIS     OPER   

              2       4        0.49       700     1000      520     2100   
                                         GEOM     BASIS   MCVARS     RHF  

 PROGRAMS   *        TOTAL    HF-SCF       INT
 CPU TIMES  *         0.85      0.08      0.62
 REAL TIME  *         3.10 SEC
 DISK USED  *        40.49 MB
 **********************************************************************************************************************************


 PROGRAM * CCSD (Closed-shell coupled cluster)     Authors: C. Hampel, H.-J. Werner, 1991, M. Deegan, P.J. Knowles, 1992


 Convergence thresholds:  THRVAR = 1.00D-08  THRDEN = 1.00D-06

 Number of core orbitals:           3 (   3   0 )
 Number of closed-shell orbitals:   8 (   6   2 )
 Number of external orbitals:      46 (  30  16 )

 Molecular orbitals read from record     2100.2  Type=RHF/CANONICAL  

 Number of N-1 electron functions:               8
 Number of N-2 electron functions:              36
 Number of singly external CSFs:               212
 Number of doubly external CSFs:             34824
 Total number of CSFs:                       35037

 Length of J-op  integral file:               0.00 MB
 Length of K-op  integral file:               0.19 MB
 Length of 3-ext integral record:             0.00 MB

 Integral transformation finished. Total CPU:   0.02 sec, npass=  1  Memory used:   0.36 MW

 Reference energy:                   -131.93813279

 MP2 singlet pair energy:              -0.26393879
 MP2 triplet pair energy:              -0.15745887
 MP2 correlation energy:               -0.42139766
 MP2 total energy:                   -132.35953045

 SCS-MP2 correlation energy:           -0.41470095   (PS=  1.200000  PT=  0.333333)
 SCS-MP2 total energy:               -132.35283375

 ITER.      SQ.NORM     CORR.ENERGY   TOTAL ENERGY   ENERGY CHANGE        DEN1      VAR(S)    VAR(P)  DIIS     TIME  TIME/IT
   1      1.15843074    -0.44095337  -132.37908616    -0.01955571    -0.00515217  0.25D-02  0.35D-02  1  1     1.28     0.06
   2      1.17228215    -0.44295394  -132.38108673    -0.00200057    -0.01314285  0.33D-04  0.51D-03  2  2     1.33     0.06
   3      1.17761661    -0.44327689  -132.38140968    -0.00032295    -0.00276976  0.17D-04  0.40D-04  3  3     1.38     0.06
   4      1.17958530    -0.44335329  -132.38148608    -0.00007640    -0.00073896  0.75D-06  0.45D-05  4  4     1.42     0.06
   5      1.18000665    -0.44335343  -132.38148622    -0.00000014    -0.00012841  0.83D-07  0.48D-06  5  5     1.47     0.06
   6      1.18009010    -0.44335066  -132.38148345     0.00000277    -0.00002077  0.64D-08  0.26D-07  6  6     1.52     0.06
   7      1.18010041    -0.44335312  -132.38148591    -0.00000246    -0.00000252  0.63D-09  0.18D-08  6  2     1.58     0.06
   8      1.18010132    -0.44335296  -132.38148575     0.00000016    -0.00000001  0.61D-10  0.17D-09  6  1     1.63     0.06
   9      1.18010154    -0.44335293  -132.38148572     0.00000002     0.00000003  0.98D-11  0.14D-10  6  3     1.68     0.06

 Norm of t1 vector:      0.06637260      S-energy:     0.00000006      T1 diagnostic:  0.01173313
                                                                       D1 diagnostic:  0.02768210
                                                                       D2 diagnostic:  0.17284888 (internal)

 Doubles amplitudes (print threshold =  0.500E-01):

         I         J         SYM. A    SYM. B    A         B      T(IJ, AB)

         6         6         1         1         2         2     -0.05528972
         8         8         2         2         1         1     -0.05528973


 RESULTS
 =======

  Reference energy                   -131.938132792696
  CCSD singlet pair energy             -0.307079926666
  CCSD triplet pair energy             -0.136273068194
  CCSD correlation energy              -0.443352932024

 !CCSD total energy                  -132.381485724720

 Timing summary (sec):

 STEP                 CPU(USER)    SYS     CPU(TOT)    WALL
 Transformation          0.02      0.01      0.03      0.19
 CCSD iterations         1.67      0.07      1.74      0.56

 Program statistics:

 Available memory in ccsd:               805306103
 Min. memory needed in ccsd:                121196
 Max. memory used in ccsd:                  146794
 Max. memory used in cckext:                195080 ( 9 integral passes)



 **********************************************************************************************************************************
 DATASETS  * FILE   NREC   LENGTH (MB)   RECORD NAMES
              1      20       33.67       500      610      700      900      950      970     1000      129      960     1100   
                                          VAR    BASINP    GEOM    SYMINP    ZMAT    AOBASIS   BASIS     P2S    ABASIS      S 
                                         1400     1410     1200     1210     1080     1600     1650     1300     1700     1380   
                                           T        V       H0       H01     AOSYM     SMH    MOLCAS    ERIS     OPER     JKOP   

              2       4        0.49       700     1000      520     2100   
                                         GEOM     BASIS   MCVARS     RHF  

 PROGRAMS   *        TOTAL      CCSD    HF-SCF       INT
 CPU TIMES  *         1.37      0.52      0.08      0.62
 REAL TIME  *         3.92 SEC
 DISK USED  *        40.72 MB
 **********************************************************************************************************************************

 Dump information in style XML to xml output                                                                      

 Orbitals will not be exported.

 **********************************************************************************************************************************

 CCSD/cc-pVDZ energy=   -132.381485724720

            CCSD          HF-SCF
   -132.38148572   -131.93813279
 **********************************************************************************************************************************
 Molpro calculation terminated
