
 Working directory              : /home/jovyan/scratch/molpro.rjZM688MAk/
 Global scratch directory       : /home/jovyan/scratch/molpro.rjZM688MAk/
 Wavefunction directory         : /home/jovyan/wfu/
 Main file repository           : /home/jovyan/scratch/molpro.rjZM688MAk/

 id        : cardiff

 Nodes                nprocs
 jupyter-c-2efrancisan    1
 GA implementation: MPI file
 GA implementation (serial work in mppx): MPI file

 Using customized tuning parameters: mindgm=1; mindgv=20; mindgc=4; mindgr=1; noblas=0; minvec=7
 default implementation of scratch files=df  


 Variables initialized (1031), CPU time= 0.00 sec
 
 
 
 geometry={
 6
  C     0.1354501    0.3335445    0.0000000
  O     0.1744673   -1.0774079    0.0000000
  H     0.6439155    0.7202929    0.8794450
  H     0.6439155    0.7202929   -0.8794450
  H    -0.8812042    0.7207713    0.0000000
  H    -0.7165441   -1.4174937    0.0000000
 }
 basis=cc-pVDZ
 angstrom
 
 
 hf; ccsd(t)
 
 
 
 {put,xml;noorbitals,nobasis}
 Commands initialized (841), CPU time= 0.01 sec, 704 directives.
 Default parameters read. Elapsed time= 0.09 sec

 Checking input...
 Passed
1


                                         ***  PROGRAM SYSTEM MOLPRO  ***
                                       Copyright, TTI GmbH Stuttgart, 2015
                                    Version 2023.1 linked Mon Jun  5 13:27:10 2023


 **********************************************************************************************************************************
 LABEL *                                                                                                                                                                 
  (16 PROC) 64 bit serial version                                                        DATE: 02-Aug-23          TIME: 15:47:32  
 **********************************************************************************************************************************

 SHA1:             9738a14712571edd23541b6d7c4f3a3d766f8287
 **********************************************************************************************************************************

 Memory per process:       805 MW
 Total memory per node:   1074 MW
 Total GA space:           268 MW

 GA preallocation disabled
 GA check enabled

 Geometry recognized as XYZ


 Variable memory set to 805.3 MW

 SETTING BASIS          =    CC-PVDZ


 Recomputing integrals since basis changed


 Using spherical harmonics

 Library entry C      S cc-pVDZ              selected for orbital group  1
 Library entry C      P cc-pVDZ              selected for orbital group  1
 Library entry C      D cc-pVDZ              selected for orbital group  1
 Library entry O      S cc-pVDZ              selected for orbital group  2
 Library entry O      P cc-pVDZ              selected for orbital group  2
 Library entry O      D cc-pVDZ              selected for orbital group  2
 Library entry H      S cc-pVDZ              selected for orbital group  3
 Library entry H      P cc-pVDZ              selected for orbital group  3


 PROGRAM * SEWARD (Integral evaluation for generally contracted gaussian basis sets)     Author: Roland Lindh, 1990

 Geometry written to block  1 of record 700


 Point group  Cs  



 ATOMIC COORDINATES

 NR  ATOM    CHARGE       X              Y              Z

   1  C       6.00    0.255963593    0.630307755    0.000000000
   2  O       8.00    0.329695415   -2.036005856    0.000000000
   3  H       1.00    1.216823942    1.361156311    1.661910192
   4  H       1.00    1.216823942    1.361156311   -1.661910192
   5  H       1.00   -1.665234598    1.362060355    0.000000000
   6  H       1.00   -1.354072105   -2.678674876    0.000000000

 Bond lengths in Bohr (Angstrom)

 1-2  2.667332873  1-3  2.054102653  1-4  2.054102653  1-5  2.055836656  2-6  1.802247633
     ( 1.411491770)     ( 1.086984313)     ( 1.086984313)     ( 1.087901908)     ( 0.953708376)

 Bond angles

  1-2-6  109.30710981   2-1-3  110.04346811   2-1-4  110.04346811   2-1-5  112.43501110

  3-1-4  108.01008361   3-1-5  108.08925879   4-1-5  108.08925879

 NUCLEAR CHARGE:                   18
 NUMBER OF PRIMITIVE AOS:          82
 NUMBER OF SYMMETRY AOS:           80
 NUMBER OF CONTRACTIONS:           48   (   33A'  +   15A"  )
 NUMBER OF INNER CORE ORBITALS:     0   (    0A'  +    0A"  )
 NUMBER OF OUTER CORE ORBITALS:     2   (    2A'  +    0A"  )
 NUMBER OF VALENCE ORBITALS:       12   (    9A'  +    3A"  )


 NUCLEAR REPULSION ENERGY   40.51787732

 Eigenvalues of metric

         1 0.961E-02 0.173E-01 0.331E-01 0.376E-01 0.471E-01 0.533E-01 0.731E-01 0.102E+00
         2 0.367E-01 0.481E-01 0.125E+00 0.177E+00 0.313E+00 0.476E+00 0.577E+00 0.910E+00


 Contracted 2-electron integrals neglected if value below      1.0D-11
 AO integral compression algorithm  1   Integral accuracy      1.0D-11

     2.359 MB (compressed) written to integral file ( 61.7%)


 NUMBER OF SORTED TWO-ELECTRON INTEGRALS:     366861.     BUFFER LENGTH:  32768
 NUMBER OF SEGMENTS:   1  SEGMENT LENGTH:     366861      RECORD LENGTH: 524288

 Memory used in sort:       0.92 MW

 SORT1 READ      442681. AND WROTE      361439. INTEGRALS IN      2 RECORDS. CPU TIME:     0.01 SEC, REAL TIME:     0.09 SEC
 SORT2 READ      361439. AND WROTE      366861. INTEGRALS IN      9 RECORDS. CPU TIME:     0.02 SEC, REAL TIME:     0.03 SEC

 FILE SIZES:   FILE 1:    32.5 MBYTE,  FILE 4:     8.5 MBYTE,   TOTAL:     40.9 MBYTE

 OPERATOR DM      FOR CENTER  0  COORDINATES:    0.000000    0.000000    0.000000


 **********************************************************************************************************************************
 DATASETS  * FILE   NREC   LENGTH (MB)   RECORD NAMES
              1      19       30.39       500      610      700      900      950      970     1000      129      960     1100   
                                          VAR    BASINP    GEOM    SYMINP    ZMAT    AOBASIS   BASIS     P2S    ABASIS      S 
                                         1400     1410     1200     1210     1080     1600     1650     1300     1700   
                                           T        V       H0       H01     AOSYM     SMH    MOLCAS    ERIS     OPER   

 PROGRAMS   *        TOTAL       INT
 CPU TIMES  *         0.66      0.51
 REAL TIME  *         1.87 SEC
 DISK USED  *        39.46 MB
 **********************************************************************************************************************************


 Program * Restricted Hartree-Fock

 Orbital guess generated from atomic densities. Full valence occupancy:   11   3

 Initial occupancy:   7   2

 NELEC=   18   SYM=1   MS2= 0   THRE=1.0D-08   THRD=3.2D-06   THRG=3.2D-06  HFMA2=F  DIIS_START=2   DIIS_MAX=10   DIIS_INCORE=F

 Level shifts:    0.00 (CLOSED)    0.00 (OPEN)    0.30 (GAP_MIN)

 ITER           ETOT              DE          GRAD        DDIFF     DIIS  NEXP   TIME(IT)  TIME(TOT)  DIAG
   1     -115.01269681    -115.01269681     0.00D+00     0.21D+00     0     0       0.00      0.00    start
   2     -115.04101316      -0.02831635     0.13D-01     0.27D-01     1     0       0.01      0.01    diag
   3     -115.04688530      -0.00587214     0.62D-02     0.83D-02     2     0       0.00      0.01    diag
   4     -115.04733669      -0.00045139     0.13D-02     0.27D-02     3     0       0.01      0.02    diag
   5     -115.04735614      -0.00001945     0.23D-03     0.55D-03     4     0       0.00      0.02    diag
   6     -115.04735682      -0.00000068     0.40D-04     0.11D-03     5     0       0.00      0.02    diag
   7     -115.04735685      -0.00000003     0.85D-05     0.18D-04     6     0       0.01      0.03    diag
   8     -115.04735685      -0.00000000     0.28D-05     0.66D-05     7     0       0.00      0.03    fixocc
   9     -115.04735685      -0.00000000     0.56D-06     0.18D-05     8     0       0.01      0.04    diag
  10     -115.04735685      -0.00000000     0.87D-07     0.22D-06     0     0       0.00      0.04    diag/orth

 Final occupancy:   7   2

 !RHF STATE 1.1 Energy               -115.047356851556
  RHF One-electron energy            -237.290131436110
  RHF Two-electron energy              81.724897264635
  RHF Kinetic energy                  114.995482183217
  RHF Nuclear energy                   40.517877319920
  RHF Virial quotient                  -1.000451101794

 !RHF STATE 1.1 Dipole moment          -0.61973535     0.38267098     0.00000000
 Dipole moment /Debye                  -1.57521014     0.97265261     0.00000000

 Orbital energies:

           1.1          2.1          3.1          4.1          5.1          6.1          7.1          8.1          9.1
    -20.546564   -11.271974    -1.352275    -0.923659    -0.686631    -0.590696    -0.494924     0.182524     0.221480

           1.2          2.2          3.2          4.2
     -0.614017    -0.439430     0.272689     0.631929


 HOMO      2.2    -0.439430 =     -11.9575eV
 LUMO      8.1     0.182524 =       4.9667eV
 LUMO-HOMO         0.621954 =      16.9242eV

 Orbitals saved in record  2100.2


 **********************************************************************************************************************************
 DATASETS  * FILE   NREC   LENGTH (MB)   RECORD NAMES
              1      19       30.39       500      610      700      900      950      970     1000      129      960     1100   
                                          VAR    BASINP    GEOM    SYMINP    ZMAT    AOBASIS   BASIS     P2S    ABASIS      S 
                                         1400     1410     1200     1210     1080     1600     1650     1300     1700   
                                           T        V       H0       H01     AOSYM     SMH    MOLCAS    ERIS     OPER   

              2       4        0.48       700     1000      520     2100   
                                         GEOM     BASIS   MCVARS     RHF  

 PROGRAMS   *        TOTAL    HF-SCF       INT
 CPU TIMES  *         0.71      0.04      0.51
 REAL TIME  *         1.99 SEC
 DISK USED  *        39.46 MB
 **********************************************************************************************************************************


 PROGRAM * CCSD (Closed-shell coupled cluster)     Authors: C. Hampel, H.-J. Werner, 1991, M. Deegan, P.J. Knowles, 1992


 Convergence thresholds:  THRVAR = 1.00D-08  THRDEN = 1.00D-06

 CCSD(T)     terms to be evaluated (factor= 1.000)


 Number of core orbitals:           2 (   2   0 )
 Number of closed-shell orbitals:   7 (   5   2 )
 Number of external orbitals:      39 (  26  13 )

 Molecular orbitals read from record     2100.2  Type=RHF/CANONICAL  

 Number of N-1 electron functions:               7
 Number of N-2 electron functions:              28
 Number of singly external CSFs:               156
 Number of doubly external CSFs:             19149
 Total number of CSFs:                       19306

 Length of J-op  integral file:               0.00 MB
 Length of K-op  integral file:               0.15 MB
 Length of 3-ext integral record:             0.00 MB

 Memory could be reduced to 0.40 Mwords without degradation in triples

 Integral transformation finished. Total CPU:   0.01 sec, npass=  1  Memory used:   0.23 MW

 Reference energy:                   -115.04735685

 MP2 singlet pair energy:              -0.21783632
 MP2 triplet pair energy:              -0.11951300
 MP2 correlation energy:               -0.33734932
 MP2 total energy:                   -115.38470617

 SCS-MP2 correlation energy:           -0.33576723   (PS=  1.200000  PT=  0.333333)
 SCS-MP2 total energy:               -115.38312408

 ITER.      SQ.NORM     CORR.ENERGY   TOTAL ENERGY   ENERGY CHANGE        DEN1      VAR(S)    VAR(P)  DIIS     TIME  TIME/IT
   1      1.10641764    -0.36022330  -115.40758015    -0.02287398    -0.01433113  0.88D-03  0.17D-02  1  1     1.11     0.03
   2      1.11479763    -0.36215008  -115.40950693    -0.00192679    -0.00915181  0.19D-04  0.15D-03  2  2     1.14     0.03
   3      1.11659561    -0.36227304  -115.40962989    -0.00012296    -0.00115322  0.92D-05  0.82D-05  3  3     1.16     0.03
   4      1.11709240    -0.36227203  -115.40962888     0.00000101    -0.00024691  0.36D-06  0.63D-06  4  4     1.19     0.03
   5      1.11718692    -0.36227251  -115.40962936    -0.00000048    -0.00003407  0.10D-06  0.47D-07  5  5     1.22     0.03
   6      1.11720601    -0.36227116  -115.40962802     0.00000135    -0.00000435  0.16D-07  0.41D-08  6  6     1.24     0.03
   7      1.11721099    -0.36227077  -115.40962762     0.00000040    -0.00000042  0.20D-08  0.74D-09  6  1     1.27     0.03
   8      1.11721279    -0.36227080  -115.40962766    -0.00000004     0.00000027  0.21D-09  0.75D-10  6  2     1.30     0.03

 Norm of t1 vector:      0.04106934      S-energy:    -0.00000021      T1 diagnostic:  0.00776138
                                                                       D1 diagnostic:  0.01683023
                                                                       D2 diagnostic:  0.13347590 (internal)


 Total CPU time for triples:      0.10 sec


 RESULTS
 =======

  Reference energy                   -115.047356851556
  CCSD singlet pair energy             -0.253575400168
  CCSD triplet pair energy             -0.108695197558
  CCSD correlation energy              -0.362270803665

  Triples (T) contribution             -0.007595625770
  Total correlation energy             -0.369866429435

  CCSD total energy                  -115.409627655221
  CCSD[T] energy                     -115.417501843644
  CCSD-T energy                      -115.417078894007
 !CCSD(T) total energy               -115.417223280991

 Timing summary (sec):

 STEP                 CPU(USER)    SYS     CPU(TOT)    WALL
 Transformation          0.01      0.01      0.02      0.14
 CCSD iterations         1.29      0.03      1.32      0.27
 Triples                 0.10      0.00      0.10      0.10

 Program statistics:

 Available memory in ccsd:               805306165
 Min. memory needed in ccsd:                 72083
 Max. memory used in ccsd:                   85659
 Max. memory used in cckext:                125279 ( 8 integral passes)



 **********************************************************************************************************************************
 DATASETS  * FILE   NREC   LENGTH (MB)   RECORD NAMES
              1      20       31.63       500      610      700      900      950      970     1000      129      960     1100   
                                          VAR    BASINP    GEOM    SYMINP    ZMAT    AOBASIS   BASIS     P2S    ABASIS      S 
                                         1400     1410     1200     1210     1080     1600     1650     1300     1700     1380   
                                           T        V       H0       H01     AOSYM     SMH    MOLCAS    ERIS     OPER     JKOP   

              2       4        0.48       700     1000      520     2100   
                                         GEOM     BASIS   MCVARS     RHF  

 PROGRAMS   *        TOTAL   CCSD(T)    HF-SCF       INT
 CPU TIMES  *         1.08      0.37      0.04      0.51
 REAL TIME  *         2.60 SEC
 DISK USED  *        39.46 MB
 **********************************************************************************************************************************

 Dump information in style XML to xml output                                                                      

 Orbitals will not be exported.

 **********************************************************************************************************************************

 CCSD(T)/cc-pVDZ energy=   -115.417223280991

         CCSD(T)          HF-SCF
   -115.41722328   -115.04735685
 **********************************************************************************************************************************
 Molpro calculation terminated
