
 Working directory              : /home/jovyan/scratch/molpro.KkK4VsIUGz/
 Global scratch directory       : /home/jovyan/scratch/molpro.KkK4VsIUGz/
 Wavefunction directory         : /home/jovyan/wfu/
 Main file repository           : /home/jovyan/scratch/molpro.KkK4VsIUGz/

 id        : cardiff

 Nodes                nprocs
 jupyter-c-2efrancisan    1
 GA implementation: MPI file
 GA implementation (serial work in mppx): MPI file

 Using customized tuning parameters: mindgm=1; mindgv=20; mindgc=4; mindgr=1; noblas=0; minvec=7
 default implementation of scratch files=df  


 Variables initialized (1031), CPU time= 0.01 sec
 
 
 
 geometry={
 16
  C    -1.4595330   -1.1910594    0.1600327
  C    -2.8488073   -0.9628516    0.0993153
  C    -3.1539559    0.3260872   -0.2060017
  S    -1.7497644    1.2592017   -0.4444530
  C    -0.7185117   -0.0716168   -0.1000887
  C     0.7185117    0.0716168   -0.1000887
  S     1.7497644   -1.2592017   -0.4444530
  C     3.1539559   -0.3260872   -0.2060017
  C     2.8488073    0.9628516    0.0993153
  C     1.4595330    1.1910594    0.1600327
  H    -1.0099655   -2.1339875    0.4228504
  H    -3.5907346   -1.7189217    0.2898715
  H    -4.1235319    0.7747989   -0.3122418
  H     4.1235319   -0.7747989   -0.3122418
  H     3.5907346    1.7189217    0.2898715
  H     1.0099655    2.1339875    0.4228504
 }
 basis=cc-pVDZ
 angstrom
 
 
 hf; ccsd
 
 
 
 {put,xml;noorbitals,nobasis}
 Commands initialized (841), CPU time= 0.01 sec, 704 directives.
 Default parameters read. Elapsed time= 0.08 sec

 Checking input...
 Passed
1


                                         ***  PROGRAM SYSTEM MOLPRO  ***
                                       Copyright, TTI GmbH Stuttgart, 2015
                                    Version 2023.1 linked Mon Jun  5 13:27:10 2023


 **********************************************************************************************************************************
 LABEL *                                                                                                                                                                 
  (16 PROC) 64 bit serial version                                                        DATE: 04-Aug-23          TIME: 06:04:55  
 **********************************************************************************************************************************

 SHA1:             9738a14712571edd23541b6d7c4f3a3d766f8287
 **********************************************************************************************************************************

 Memory per process:       805 MW
 Total memory per node:   1074 MW
 Total GA space:           268 MW

 GA preallocation disabled
 GA check enabled

 Geometry recognized as XYZ


 Variable memory set to 805.3 MW

 SETTING BASIS          =    CC-PVDZ


 Recomputing integrals since basis changed


 Using spherical harmonics

 Library entry C      S cc-pVDZ              selected for orbital group  1
 Library entry C      P cc-pVDZ              selected for orbital group  1
 Library entry C      D cc-pVDZ              selected for orbital group  1
 Library entry S      S cc-pVDZ              selected for orbital group  2
 Library entry S      P cc-pVDZ              selected for orbital group  2
 Library entry S      D cc-pVDZ              selected for orbital group  2
 Library entry H      S cc-pVDZ              selected for orbital group  4
 Library entry H      P cc-pVDZ              selected for orbital group  4


 PROGRAM * SEWARD (Integral evaluation for generally contracted gaussian basis sets)     Author: Roland Lindh, 1990

 Geometry written to block  1 of record 700


 Point group  C2  



 ATOMIC COORDINATES

 NR  ATOM    CHARGE       X              Y              Z

   1  C       6.00   -2.758117640   -2.250776064    0.302417974
   2  C       6.00    2.758117640    2.250776064    0.302417974
   3  C       6.00   -5.383465579   -1.819525823    0.187678717
   4  C       6.00    5.383465579    1.819525823    0.187678717
   5  C       6.00   -5.960112860    0.616215501   -0.389286794
   6  C       6.00    5.960112860   -0.616215501   -0.389286794
   7  S      16.00   -3.306575499    2.379546349   -0.839894445
   8  S      16.00    3.306575499   -2.379546349   -0.839894445
   9  C       6.00   -1.357790330   -0.135336138   -0.189140231
  10  C       6.00    1.357790330    0.135336138   -0.189140231
  11  H       1.00   -1.908558190   -4.032651928    0.799071448
  12  H       1.00    1.908558190    4.032651928    0.799071448
  13  H       1.00   -6.785504980   -3.248291243    0.547777746
  14  H       1.00    6.785504980    3.248291243    0.547777746
  15  H       1.00   -7.792345957    1.464157723   -0.590051487
  16  H       1.00    7.792345957   -1.464157723   -0.590051487

 Bond lengths in Bohr (Angstrom)

  1- 3  2.663004632   1- 9  2.584111477   1-11  2.035558284   2- 4  2.663004632   2-10  2.584111477
       ( 1.409201364)       ( 1.367452904)       ( 1.077171055)       ( 1.409201364)       ( 1.367452904)

  2-12  2.035558284   3- 5  2.568705332   3-13  2.033901772   4- 6  2.568705332   4-14  2.033901772
       ( 1.077171055)       ( 1.359300323)       ( 1.076294467)       ( 1.359300323)       ( 1.076294467)

  5- 7  3.217707796   5-15  2.028889005   6- 8  3.217707796   6-16  2.028889005   7- 9  3.247441855
       ( 1.702737637)       ( 1.073641825)       ( 1.702737637)       ( 1.073641825)       ( 1.718472223)

  8-10  3.247441855   9-10  2.729036791
       ( 1.718472223)       ( 1.444144077)

 Bond angles

  1- 3- 5  112.61589754   1- 3-13  123.93134747   1- 9- 7  110.29731696   1- 9-10  128.34688330

  2- 4- 6  112.61589754   2- 4-14  123.93134747   2-10- 8  110.29731696   2-10- 9  128.34688330

  3- 1- 9  113.17056137   3- 1-11  124.31411267   3- 5- 7  111.46714242   3- 5-15  128.40798942

  4- 2-10  113.17056137   4- 2-12  124.31411267   4- 6- 8  111.46714242   4- 6-16  128.40798942

  5- 3-13  123.44470076   5- 7- 9   92.43181715   6- 4-14  123.44470076   6- 8-10   92.43181715

  7- 5-15  120.12213301   7- 9-10  121.35444924   8- 6-16  120.12213301   8-10- 9  121.35444924

  9- 1-11  122.46990442  10- 2-12  122.46990442

 NUCLEAR CHARGE:                   86
 NUMBER OF PRIMITIVE AOS:         342
 NUMBER OF SYMMETRY AOS:          332
 NUMBER OF CONTRACTIONS:          178   (   89A   +   89B   )
 NUMBER OF INNER CORE ORBITALS:     2   (    1A   +    1B   )
 NUMBER OF OUTER CORE ORBITALS:    16   (    8A   +    8B   )
 NUMBER OF VALENCE ORBITALS:       46   (   23A   +   23B   )


 NUCLEAR REPULSION ENERGY  637.31599080

 Eigenvalues of metric

         1 0.474E-03 0.227E-02 0.291E-02 0.412E-02 0.105E-01 0.165E-01 0.186E-01 0.201E-01
         2 0.713E-03 0.883E-03 0.254E-02 0.412E-02 0.509E-02 0.120E-01 0.174E-01 0.194E-01


 Contracted 2-electron integrals neglected if value below      1.0D-11
 AO integral compression algorithm  1   Integral accuracy      1.0D-11

     303.563 MB (compressed) written to integral file ( 51.0%)


 NUMBER OF SORTED TWO-ELECTRON INTEGRALS:   64164105.     BUFFER LENGTH:  32768
 NUMBER OF SEGMENTS:   5  SEGMENT LENGTH:   15996036      RECORD LENGTH: 524288

 Memory used in sort:      16.55 MW

 SORT1 READ    74411824. AND WROTE    63687438. INTEGRALS IN    185 RECORDS. CPU TIME:     1.03 SEC, REAL TIME:     1.68 SEC
 SORT2 READ    63687438. AND WROTE    64164105. INTEGRALS IN   1158 RECORDS. CPU TIME:     1.41 SEC, REAL TIME:     1.73 SEC

 FILE SIZES:   FILE 1:   334.6 MBYTE,  FILE 4:   776.0 MBYTE,   TOTAL:   1110.6 MBYTE

 OPERATOR DM      FOR CENTER  0  COORDINATES:    0.000000    0.000000    0.000000


 **********************************************************************************************************************************
 DATASETS  * FILE   NREC   LENGTH (MB)   RECORD NAMES
              1      19      287.04       500      610      700      900      950      970     1000      129      960     1100   
                                          VAR    BASINP    GEOM    SYMINP    ZMAT    AOBASIS   BASIS     P2S    ABASIS      S 
                                         1400     1410     1200     1210     1080     1600     1650     1300     1700   
                                           T        V       H0       H01     AOSYM     SMH    MOLCAS    ERIS     OPER   

 PROGRAMS   *        TOTAL       INT
 CPU TIMES  *        13.52     13.39
 REAL TIME  *        16.26 SEC
 DISK USED  *         1.03 GB
 **********************************************************************************************************************************


 Program * Restricted Hartree-Fock

 Orbital guess generated from atomic densities. Full valence occupancy:   32  32

 Initial occupancy:  22  21

 NELEC=   86   SYM=1   MS2= 0   THRE=1.0D-08   THRD=3.2D-06   THRG=3.2D-06  HFMA2=F  DIIS_START=2   DIIS_MAX=10   DIIS_INCORE=F

 Level shifts:    0.00 (CLOSED)    0.00 (OPEN)    0.30 (GAP_MIN)

 ITER           ETOT              DE          GRAD        DDIFF     DIIS  NEXP   TIME(IT)  TIME(TOT)  DIAG
   1    -1101.37220307   -1101.37220307     0.00D+00     0.14D+00     0     0       0.43      0.84    start
   2    -1101.46211738      -0.08991431     0.49D-02     0.13D-01     1     0       0.42      1.26    diag
   3    -1101.48412794      -0.02201056     0.26D-02     0.56D-02     2     0       0.43      1.69    diag
   4    -1101.48747904      -0.00335109     0.73D-03     0.22D-02     3     0       0.43      2.12    diag
   5    -1101.48779775      -0.00031871     0.23D-03     0.53D-03     4     0       0.42      2.54    diag
   6    -1101.48791633      -0.00011858     0.11D-03     0.32D-03     5     0       0.43      2.97    diag
   7    -1101.48794819      -0.00003187     0.46D-04     0.20D-03     6     0       0.43      3.40    diag
   8    -1101.48795172      -0.00000352     0.16D-04     0.72D-04     7     0       0.43      3.83    fixocc
   9    -1101.48795191      -0.00000019     0.46D-05     0.18D-04     8     0       0.43      4.26    diag
  10    -1101.48795192      -0.00000001     0.12D-05     0.40D-05     9     0       0.43      4.69    diag/orth
  11    -1101.48795192      -0.00000000     0.49D-06     0.16D-05     9     0       0.42      5.11    diag
  12    -1101.48795192      -0.00000000     0.16D-06     0.41D-06     0     0       0.42      5.53    diag

 Final occupancy:  22  21

 !RHF STATE 1.1 Energy              -1101.487951922312
  RHF One-electron energy           -2779.855261244194
  RHF Two-electron energy            1041.051318526461
  RHF Kinetic energy                 1101.766198472106
  RHF Nuclear energy                  637.315990795421
  RHF Virial quotient                  -0.999747454088

 !RHF STATE 1.1 Dipole moment           0.00000000     0.00000000     0.15849117
 Dipole moment /Debye                   0.00000000     0.00000000     0.40284438

 Orbital energies:

           1.1          2.1          3.1          4.1          5.1          6.1          7.1          8.1          9.1         10.1
    -91.980752   -11.276745   -11.264477   -11.242020   -11.240694    -8.985705    -6.667300    -6.666278    -6.664323    -1.202043

          11.1         12.1         13.1         14.1         15.1         16.1         17.1         18.1         19.1         20.1
     -1.039939    -0.986693    -0.810373    -0.745898    -0.707512    -0.574273    -0.557656    -0.545984    -0.512556    -0.466502

          21.1         22.1         23.1         24.1
     -0.373617    -0.347241     0.084451     0.188423

           1.2          2.2          3.2          4.2          5.2          6.2          7.2          8.2          9.2         10.2
    -91.980752   -11.275901   -11.264477   -11.242020   -11.240694    -8.985704    -6.667300    -6.666278    -6.664323    -1.172893

          11.2         12.2         13.2         14.2         15.2         16.2         17.2         18.2         19.2         20.2
     -1.001289    -0.954547    -0.779988    -0.718612    -0.646111    -0.570100    -0.555284    -0.514057    -0.481429    -0.351190

          21.2         22.2         23.2
     -0.284772     0.157222     0.183854


 HOMO     21.2    -0.284772 =      -7.7490eV
 LUMO     23.1     0.084451 =       2.2980eV
 LUMO-HOMO         0.369223 =      10.0471eV

 Orbitals saved in record  2100.2


 **********************************************************************************************************************************
 DATASETS  * FILE   NREC   LENGTH (MB)   RECORD NAMES
              1      19      287.04       500      610      700      900      950      970     1000      129      960     1100   
                                          VAR    BASINP    GEOM    SYMINP    ZMAT    AOBASIS   BASIS     P2S    ABASIS      S 
                                         1400     1410     1200     1210     1080     1600     1650     1300     1700   
                                           T        V       H0       H01     AOSYM     SMH    MOLCAS    ERIS     OPER   

              2       4        0.90       700     1000      520     2100   
                                         GEOM     BASIS   MCVARS     RHF  

 PROGRAMS   *        TOTAL    HF-SCF       INT
 CPU TIMES  *        19.07      5.55     13.39
 REAL TIME  *        22.57 SEC
 DISK USED  *         1.03 GB
 **********************************************************************************************************************************


 PROGRAM * CCSD (Closed-shell coupled cluster)     Authors: C. Hampel, H.-J. Werner, 1991, M. Deegan, P.J. Knowles, 1992


 Convergence thresholds:  THRVAR = 1.00D-08  THRDEN = 1.00D-06

 Number of core orbitals:          18 (   9   9 )
 Number of closed-shell orbitals:  25 (  13  12 )
 Number of external orbitals:     135 (  67  68 )

 Molecular orbitals read from record     2100.2  Type=RHF/CANONICAL  

 Number of N-1 electron functions:              25
 Number of N-2 electron functions:             325
 Number of singly external CSFs:              1687
 Number of doubly external CSFs:           2849344
 Total number of CSFs:                     2851032

 Length of J-op  integral file:               0.00 MB
 Length of K-op  integral file:               1.15 MB
 Length of 3-ext integral record:             0.00 MB

 Integral transformation finished. Total CPU:   7.19 sec, npass=  1  Memory used:  33.15 MW

 Reference energy:                  -1101.48795192

 MP2 singlet pair energy:              -0.77305556
 MP2 triplet pair energy:              -0.54038722
 MP2 correlation energy:               -1.31344278
 MP2 total energy:                  -1102.80139470

 SCS-MP2 correlation energy:           -1.26390761   (PS=  1.200000  PT=  0.333333)
 SCS-MP2 total energy:              -1102.75185953

 ITER.      SQ.NORM     CORR.ENERGY   TOTAL ENERGY   ENERGY CHANGE        DEN1      VAR(S)    VAR(P)  DIIS     TIME  TIME/IT
   1      1.52815556    -1.35482301 -1102.84277493    -0.04138023    -0.00177008  0.78D-02  0.12D-01  1  1    41.85    15.77
   2      1.56985848    -1.36094278 -1102.84889470    -0.00611977    -0.03705335  0.18D-03  0.16D-02  2  2    57.36    15.95
   3      1.58434535    -1.36094911 -1102.84890103    -0.00000633    -0.00673092  0.98D-04  0.11D-03  3  3    72.90    16.00
   4      1.58985687    -1.36105221 -1102.84900413    -0.00010310    -0.00159366  0.98D-05  0.16D-04  4  4    88.47    16.04
   5      1.59186519    -1.36108923 -1102.84904115    -0.00003702    -0.00039793  0.33D-05  0.16D-05  5  5   104.05    16.05
   6      1.59242939    -1.36107179 -1102.84902371     0.00001744    -0.00006601  0.77D-06  0.25D-06  6  6   120.06    16.14
   7      1.59259453    -1.36106819 -1102.84902011     0.00000360    -0.00000908  0.19D-06  0.77D-07  6  2   136.29    16.23
   8      1.59268062    -1.36106604 -1102.84901797     0.00000214    -0.00000555  0.47D-07  0.15D-07  6  1   152.57    16.30
   9      1.59270694    -1.36106536 -1102.84901729     0.00000068     0.00000435  0.22D-08  0.35D-08  6  4   168.89    16.37
  10      1.59271973    -1.36106511 -1102.84901703     0.00000026    -0.00000121  0.45D-09  0.36D-09  6  3   185.19    16.42

 Norm of t1 vector:      0.12672821      S-energy:    -0.00000011      T1 diagnostic:  0.01267282
                                                                       D1 diagnostic:  0.04025497
                                                                       D2 diagnostic:  0.19685927 (internal)

 Doubles amplitudes (print threshold =  0.500E-01):

         I         J         SYM. A    SYM. B    A         B      T(IJ, AB)

        25        25         1         1         1         1     -0.06252360


 RESULTS
 =======

  Reference energy                  -1101.487951922311
  CCSD singlet pair energy             -0.881369192004
  CCSD triplet pair energy             -0.479695800705
  CCSD correlation energy              -1.361065106285

 !CCSD total energy                 -1102.849017028596

 Timing summary (sec):

 STEP                 CPU(USER)    SYS     CPU(TOT)    WALL
 Transformation          7.41      0.55      7.96      8.19
 CCSD iterations       178.03      3.95    181.98    164.50

 Program statistics:

 Available memory in ccsd:               805303846
 Min. memory needed in ccsd:               7139776
 Max. memory used in ccsd:                 9706982
 Max. memory used in cckext:              11161801 (10 integral passes)



 **********************************************************************************************************************************
 DATASETS  * FILE   NREC   LENGTH (MB)   RECORD NAMES
              1      20      464.52       500      610      700      900      950      970     1000      129      960     1100   
                                          VAR    BASINP    GEOM    SYMINP    ZMAT    AOBASIS   BASIS     P2S    ABASIS      S 
                                         1400     1410     1200     1210     1080     1600     1650     1300     1700     1380   
                                           T        V       H0       H01     AOSYM     SMH    MOLCAS    ERIS     OPER     JKOP   

              2       4        0.90       700     1000      520     2100   
                                         GEOM     BASIS   MCVARS     RHF  

 PROGRAMS   *        TOTAL      CCSD    HF-SCF       INT
 CPU TIMES  *       185.26    166.19      5.55     13.39
 REAL TIME  *       195.31 SEC
 DISK USED  *         1.03 GB
 **********************************************************************************************************************************

 Dump information in style XML to xml output                                                                      

 Orbitals will not be exported.

 **********************************************************************************************************************************

 CCSD/cc-pVDZ energy=  -1102.849017028596

            CCSD          HF-SCF
  -1102.84901703  -1101.48795192
 **********************************************************************************************************************************
 Molpro calculation terminated
