
 Working directory              : /home/jovyan/scratch/molpro.1P8GU3gr2o/
 Global scratch directory       : /home/jovyan/scratch/molpro.1P8GU3gr2o/
 Wavefunction directory         : /home/jovyan/wfu/
 Main file repository           : /home/jovyan/scratch/molpro.1P8GU3gr2o/

 id        : cardiff

 Nodes                nprocs
 jupyter-c-2efrancisan    1
 GA implementation: MPI file
 GA implementation (serial work in mppx): MPI file

 Using customized tuning parameters: mindgm=1; mindgv=20; mindgc=4; mindgr=1; noblas=0; minvec=7
 default implementation of scratch files=df  


 Variables initialized (1031), CPU time= 0.00 sec
 
 
 
 geometry={
            7
     F          2.24953292     -0.16163470     -0.00906451
     C          0.83989310      0.02030650      0.00310752
     H          0.35178382     -0.87134447     -0.36481550
     H          0.52242274      0.21318049      1.01958309
     H          0.60022397      0.86229312     -0.63454561
     O         -1.81896698     -0.15832046     -0.00598050
     H         -2.74488958      0.09551952     -0.00828450
 }
 basis=cc-pVDZ
 angstrom
 charge=-1
 
 hf; papt;mp4
 
 
 
 {put,xml;noorbitals,nobasis}
 Commands initialized (841), CPU time= 0.01 sec, 704 directives.
 Default parameters read. Elapsed time= 0.08 sec

 Checking input...
 Passed
1


                                         ***  PROGRAM SYSTEM MOLPRO  ***
                                       Copyright, TTI GmbH Stuttgart, 2015
                                    Version 2023.1 linked Mon Jun  5 13:27:10 2023


 **********************************************************************************************************************************
 LABEL *                                                                                                                                                                 
  (16 PROC) 64 bit serial version                                                        DATE: 02-Aug-23          TIME: 15:47:38  
 **********************************************************************************************************************************

 SHA1:             9738a14712571edd23541b6d7c4f3a3d766f8287
 **********************************************************************************************************************************

 Memory per process:       805 MW
 Total memory per node:   1074 MW
 Total GA space:           268 MW

 GA preallocation disabled
 GA check enabled

 Geometry recognized as XYZ


 Variable memory set to 805.3 MW

 SETTING BASIS          =    CC-PVDZ
 SETTING CHARGE         =        -1.00000000                                  


 Recomputing integrals since basis changed


 Using spherical harmonics

 Library entry F      S cc-pVDZ              selected for orbital group  1
 Library entry F      P cc-pVDZ              selected for orbital group  1
 Library entry F      D cc-pVDZ              selected for orbital group  1
 Library entry C      S cc-pVDZ              selected for orbital group  2
 Library entry C      P cc-pVDZ              selected for orbital group  2
 Library entry C      D cc-pVDZ              selected for orbital group  2
 Library entry H      S cc-pVDZ              selected for orbital group  3
 Library entry H      P cc-pVDZ              selected for orbital group  3
 Library entry O      S cc-pVDZ              selected for orbital group  4
 Library entry O      P cc-pVDZ              selected for orbital group  4
 Library entry O      D cc-pVDZ              selected for orbital group  4


 PROGRAM * SEWARD (Integral evaluation for generally contracted gaussian basis sets)     Author: Roland Lindh, 1990

 Geometry written to block  1 of record 700


 Point group  C1  



 ATOMIC COORDINATES

 NR  ATOM    CHARGE       X              Y              Z

   1  F       9.00    4.251001127   -0.305445315   -0.017129441
   2  C       6.00    1.587167933    0.038373724    0.005872362
   3  H       1.00    0.664775075   -1.646602409   -0.689401381
   4  H       1.00    0.987235900    0.402852741    1.926732801
   5  H       1.00    1.134258917    1.629497836   -1.199117416
   6  O       8.00   -3.437349422   -0.299182309   -0.011301507
   7  H       1.00   -5.187089549    0.180505732   -0.015655436

 Bond lengths in Bohr (Angstrom)

 1-2  2.686028276  2-3  2.042880008  2-4  2.045108366  2-5  2.046656513  6-7  1.814307054
     ( 1.421384952)     ( 1.081045545)     ( 1.082224741)     ( 1.083043985)     ( 0.960089946)

 Bond angles

  1-2-3  109.83382105   1-2-4  108.77070472   1-2-5  108.29649717   3-2-4  109.52435453

  3-2-5  109.93347062   4-2-5  110.45808017

 NUCLEAR CHARGE:                   27
 NUMBER OF PRIMITIVE AOS:         109
 NUMBER OF SYMMETRY AOS:          106
 NUMBER OF CONTRACTIONS:           62   (   62A   )
 NUMBER OF INNER CORE ORBITALS:     0   (    0A   )
 NUMBER OF OUTER CORE ORBITALS:     3   (    3A   )
 NUMBER OF VALENCE ORBITALS:       16   (   16A   )


 NUCLEAR REPULSION ENERGY   67.43070998


 Eigenvalues of metric

         1 0.113E-01 0.219E-01 0.250E-01 0.353E-01 0.362E-01 0.415E-01 0.476E-01 0.494E-01


 Contracted 2-electron integrals neglected if value below      1.0D-11
 AO integral compression algorithm  1   Integral accuracy      1.0D-11

     8.126 MB (compressed) written to integral file ( 46.8%)


 NUMBER OF SORTED TWO-ELECTRON INTEGRALS:    1908081.     BUFFER LENGTH:  32768
 NUMBER OF SEGMENTS:   1  SEGMENT LENGTH:    1908081      RECORD LENGTH: 524288

 Memory used in sort:       2.47 MW

 SORT1 READ     2157270. AND WROTE     1677137. INTEGRALS IN      5 RECORDS. CPU TIME:     0.02 SEC, REAL TIME:     0.11 SEC
 SORT2 READ     1677137. AND WROTE     1908081. INTEGRALS IN     31 RECORDS. CPU TIME:     0.07 SEC, REAL TIME:     0.09 SEC

 FILE SIZES:   FILE 1:    38.4 MBYTE,  FILE 4:    21.0 MBYTE,   TOTAL:     59.4 MBYTE

 OPERATOR DM      FOR CENTER  0  COORDINATES:    0.000000    0.000000    0.000000


 **********************************************************************************************************************************
 DATASETS  * FILE   NREC   LENGTH (MB)   RECORD NAMES
              1      19       35.14       500      610      700      900      950      970     1000      129      960     1100   
                                          VAR    BASINP    GEOM    SYMINP    ZMAT    AOBASIS   BASIS     P2S    ABASIS      S 
                                         1400     1410     1200     1210     1080     1600     1650     1300     1700   
                                           T        V       H0       H01     AOSYM     SMH    MOLCAS    ERIS     OPER   

 PROGRAMS   *        TOTAL       INT
 CPU TIMES  *         0.85      0.71
 REAL TIME  *         2.16 SEC
 DISK USED  *        57.07 MB
 **********************************************************************************************************************************


 Program * Restricted Hartree-Fock

 Orbital guess generated from atomic densities. Full valence occupancy:   19

 Initial occupancy:  14

 NELEC=   28   SYM=1   MS2= 0   THRE=1.0D-08   THRD=3.2D-06   THRG=3.2D-06  HFMA2=F  DIIS_START=2   DIIS_MAX=10   DIIS_INCORE=F

 Level shifts:    0.00 (CLOSED)    0.00 (OPEN)    0.30 (GAP_MIN)

 ITER           ETOT              DE          GRAD        DDIFF     DIIS  NEXP   TIME(IT)  TIME(TOT)  DIAG
   1     -214.27393101    -214.27393101     0.00D+00     0.16D+00     0     0       0.02      0.04    start
   2     -214.36269571      -0.08876470     0.16D-01     0.35D-01     1     0       0.03      0.07    diag
   3     -214.40765432      -0.04495861     0.97D-02     0.13D-01     2     0       0.02      0.09    diag
   4     -214.40821209      -0.00055777     0.68D-03     0.16D-02     3     0       0.02      0.11    diag
   5     -214.40825586      -0.00004377     0.19D-03     0.50D-03     4     0       0.02      0.13    diag
   6     -214.40825927      -0.00000341     0.52D-04     0.12D-03     5     0       0.02      0.15    diag
   7     -214.40825985      -0.00000059     0.23D-04     0.55D-04     6     0       0.03      0.18    diag
   8     -214.40825990      -0.00000004     0.50D-05     0.18D-04     7     0       0.02      0.20    fixocc
   9     -214.40825990      -0.00000000     0.11D-05     0.34D-05     8     0       0.03      0.23    diag
  10     -214.40825990      -0.00000000     0.24D-06     0.77D-06     9     0       0.02      0.25    diag/orth
  11     -214.40825990      -0.00000000     0.70D-07     0.16D-06     0     0       0.02      0.27    diag

 Final occupancy:  14

 !RHF STATE 1.1 Energy               -214.408259900004
  RHF One-electron energy            -438.060381342565
  RHF Two-electron energy             156.221411467151
  RHF Kinetic energy                  214.525180139007
  RHF Nuclear energy                   67.430709975409
  RHF Virial quotient                  -0.999454981280

 !RHF STATE 1.1 Dipole moment           1.55035622     0.46403153     0.01538349
 Dipole moment /Debye                   3.94061247     1.17945051     0.03910092

 Orbital energies:

           1.1          2.1          3.1          4.1          5.1          6.1          7.1          8.1          9.1         10.1
    -26.086946   -20.120480   -11.107416    -1.390381    -0.862616    -0.751986    -0.497047    -0.495499    -0.469921    -0.338019

          11.1         12.1         13.1         14.1         15.1         16.1
     -0.334510    -0.208036    -0.073623    -0.072296     0.382030     0.446152


 HOMO     14.1    -0.072296 =      -1.9673eV
 LUMO     15.1     0.382030 =      10.3956eV
 LUMO-HOMO         0.454327 =      12.3629eV

 Orbitals saved in record  2100.2


 **********************************************************************************************************************************
 DATASETS  * FILE   NREC   LENGTH (MB)   RECORD NAMES
              1      19       35.14       500      610      700      900      950      970     1000      129      960     1100   
                                          VAR    BASINP    GEOM    SYMINP    ZMAT    AOBASIS   BASIS     P2S    ABASIS      S 
                                         1400     1410     1200     1210     1080     1600     1650     1300     1700   
                                           T        V       H0       H01     AOSYM     SMH    MOLCAS    ERIS     OPER   

              2       4        0.54       700     1000      520     2100   
                                         GEOM     BASIS   MCVARS     RHF  

 PROGRAMS   *        TOTAL    HF-SCF       INT
 CPU TIMES  *         1.12      0.27      0.71
 REAL TIME  *         2.81 SEC
 DISK USED  *        57.07 MB
 **********************************************************************************************************************************


 PROGRAM * PAPT (Closed-shell)     Authors: C. Hampel, H.-J. Werner, 1991, P.J. Knowles, 2021


 Convergence thresholds:  THRVAR = 1.00D-08  THRDEN = 1.00D-06

 Number of core orbitals:           3 (   3 )
 Number of closed-shell orbitals:  11 (  11 )
 Number of external orbitals:      48 (  48 )

 Molecular orbitals read from record     2100.2  Type=RHF/CANONICAL  

 Number of N-1 electron functions:              11
 Number of N-2 electron functions:              66
 Number of singly external CSFs:               528
 Number of doubly external CSFs:            139656
 Total number of CSFs:                      140185

 Length of J-op  integral file:               0.00 MB
 Length of K-op  integral file:               0.33 MB

 Integral transformation finished. Total CPU:   0.05 sec, npass=  1  Memory used:   0.55 MW

 Reference energy:                   -214.40825990

                        CORR.ENERGY   TOTAL ENERGY   ENERGY CHANGE
 MP2:                   -0.53233344  -214.94059334    -0.53233344

 SCS-MP2 correlation energy:           -0.52392029   (PS=  1.200000  PT=  0.333333)
 SCS-MP2 total energy:               -214.93218019
 Iteration:   1     0.2607D+00
 Iteration:   2     0.5805D+00
 Iteration:   3     0.1760D+00
 Iteration:   4     0.8667D-01
 Iteration:   5     0.6442D+00
 Iteration:   6     0.4445D-01
 Iteration:   7     0.6247D-01
 Iteration:   8     0.1685D-01
 Iteration:   9     0.1301D-01
 Iteration:  10     0.1484D-01
 Iteration:  11     0.6319D-02
 Iteration:  12     0.1661D-01
 Iteration:  13     0.3497D-02
 Iteration:  14     0.5304D-01
 Iteration:  15     0.1281D-02
 Iteration:  16     0.1143D-02
 Iteration:  17     0.1024D-02
 Iteration:  18     0.4944D-03
 Iteration:  19     0.1865D-02
 Iteration:  20     0.1926D-03
 Iteration:  21     0.1825D-03
 Iteration:  22     0.8294D-03
 Iteration:  23     0.1113D-03
 Iteration:  24     0.1204D-03
 Iteration:  25     0.1638D-03
 Iteration:  26     0.5470D-04
 PAPT operator written to  7000.1
 PAPT orbitals and eigenvalues written to  7000.2

 MP3(D):                -0.55154688  -214.95980678    -0.01921344



 RESULTS
 =======

  Reference energy                   -214.408259900004
  MP3 singlet pair energy              -0.367683237651
  MP3 triplet pair energy              -0.183863643191
  MP3 correlation energy               -0.551546880842

 !MP3 total energy                   -214.959806780847

 Timing summary (sec):

 STEP                 CPU(USER)    SYS     CPU(TOT)    WALL
 Transformation          0.06      0.01      0.07      0.13
 CCSD iterations         2.60      0.06      2.66      1.56

 Program statistics:

 Available memory in ccsd:               805305870
 Min. memory needed in ccsd:                431957
 Max. memory used in ccsd:                  542265
 Max. memory used in cckext:                579355 ( 1 integral passes)



 **********************************************************************************************************************************
 DATASETS  * FILE   NREC   LENGTH (MB)   RECORD NAMES
              1      21       38.13       500      610      700      900      950      970     1000      129      960     1100   
                                          VAR    BASINP    GEOM    SYMINP    ZMAT    AOBASIS   BASIS     P2S    ABASIS      S 
                                         1400     1410     1200     1210     1080     1600     1650     1300     1700     1380   
                                           T        V       H0       H01     AOSYM     SMH    MOLCAS    ERIS     OPER     JKOP   
                                         7000   
                                        PAPT AO    

              2       5        0.73       700     1000      520     2100     7000   
                                         GEOM     BASIS   MCVARS     RHF     PAPT   

 PROGRAMS   *        TOTAL      PAPT    HF-SCF       INT
 CPU TIMES  *         2.32      1.19      0.27      0.71
 REAL TIME  *         4.56 SEC
 DISK USED  *        57.07 MB
 **********************************************************************************************************************************


 PROGRAM * MP4 (Closed-shell)     Authors: C. Hampel, H.-J. Werner, 1991, M. Deegan, P.J. Knowles, 1992


 Convergence thresholds:  THRVAR = 1.00D-08  THRDEN = 1.00D-06

 MP4(T)     terms to be evaluated (factor= 0.000)


 Number of core orbitals:           3 (   3 )
 Number of closed-shell orbitals:  11 (  11 )
 Number of external orbitals:      48 (  48 )

 Molecular orbitals read from record     7000.2  Type=PAPT/CANONICAL (state 1.1)

 Number of N-1 electron functions:              11
 Number of N-2 electron functions:              66
 Number of singly external CSFs:               528
 Number of doubly external CSFs:            139656
 Total number of CSFs:                      140185

 Length of J-op  integral file:               0.00 MB
 Length of K-op  integral file:               0.33 MB

 Memory could be reduced to 1.94 Mwords without degradation in triples

 Integral transformation finished. Total CPU:   0.12 sec, npass=  1  Memory used:   2.00 MW
 Orbital energies read from record       7000.2  Type=PAPT/CANONICAL (state 1.1)

 Reference energy:                   -214.40825990

                        CORR.ENERGY   TOTAL ENERGY   ENERGY CHANGE
 MP2:                   -0.55664163  -214.96490153    -0.55664163

 SCS-MP2 correlation energy:           -0.55059997   (PS=  1.200000  PT=  0.333333)
 SCS-MP2 total energy:               -214.95885987

 MP3(D):                -0.55690401  -214.96516391    -0.00026238
 MP4(DQ):               -0.55680487  -214.96506477     0.00009915
 MP4(SDQ):              -0.56008357  -214.96834347    -0.00327871

 Norm of t1 vector:      0.04867557      S-energy:    -0.00327871      T1 diagnostic:  0.00733812

 Largest off-diagonal element in interal  block of Fock matrix:  0.13D+00
 Largest off-diagonal element in external block of Fock matrix:  0.18D+00


 Total CPU time for triples:      1.97 sec


 RESULTS
 =======

  Reference energy                   -214.408259900004
  MP4(SDQ) singlet pair energy         -0.370840630257
  MP4(SDQ) triplet pair energy         -0.185964236910
  MP4(SDQ) correlation energy          -0.560083574334

  Triples contribution                 -0.010412186029
  Total correlation energy             -0.570495760363

  MP4(SDQ) total energy              -214.968343474338
 !MP4(SDTQ) total energy             -214.978755660367

 Timing summary (sec):

 STEP                 CPU(USER)    SYS     CPU(TOT)    WALL
 Transformation          0.15      0.02      0.17      0.37
 CCSD iterations         3.15      0.04      3.19      0.51
 Triples                 1.97      0.08      2.05      2.12

 Program statistics:

 Available memory in ccsd:               805305870
 Min. memory needed in ccsd:                431957
 Max. memory used in ccsd:                  542265
 Max. memory used in cckext:                579355 ( 1 integral passes)



 **********************************************************************************************************************************
 DATASETS  * FILE   NREC   LENGTH (MB)   RECORD NAMES
              1      22       42.87       500      610      700      900      950      970     1000      129      960     1100   
                                          VAR    BASINP    GEOM    SYMINP    ZMAT    AOBASIS   BASIS     P2S    ABASIS      S 
                                         1400     1410     1200     1210     1080     1600     1650     1300     1700     1380   
                                           T        V       H0       H01     AOSYM     SMH    MOLCAS    ERIS     OPER     JKOP   
                                         7000     1380(1)
                                        PAPT AO   JKOP   

              2       5        0.73       700     1000      520     2100     7000   
                                         GEOM     BASIS   MCVARS     RHF     PAPT   

 PROGRAMS   *        TOTAL       MP4      PAPT    HF-SCF       INT
 CPU TIMES  *         4.93      2.60      1.19      0.27      0.71
 REAL TIME  *         7.62 SEC
 DISK USED  *        58.07 MB
 **********************************************************************************************************************************

 Dump information in style XML to xml output                                                                      

 Orbitals will not be exported.

 **********************************************************************************************************************************

 MP4/cc-pVDZ energy=   -214.978755660367

             MP4            PAPT          HF-SCF
   -214.97875566   -214.95980678   -214.40825990
 **********************************************************************************************************************************
 Molpro calculation terminated
