
 Working directory              : /home/jovyan/scratch/molpro.6UuIhe8NTO/
 Global scratch directory       : /home/jovyan/scratch/molpro.6UuIhe8NTO/
 Wavefunction directory         : /home/jovyan/wfu/
 Main file repository           : /home/jovyan/scratch/molpro.6UuIhe8NTO/

 id        : cardiff

 Nodes                nprocs
 jupyter-c-2efrancisan    1
 GA implementation: MPI file
 GA implementation (serial work in mppx): MPI file

 Using customized tuning parameters: mindgm=1; mindgv=20; mindgc=4; mindgr=1; noblas=0; minvec=7
 default implementation of scratch files=df  


 Variables initialized (1031), CPU time= 0.01 sec
 
 
 
 geometry={
 16
  4NH3 (cyc) (Full point group S4)
  H -1.710690 -0.579609 0.003110
  H -0.579609 1.710690 -0.003110
  H 2.081757 1.949474 -0.823544
  H -2.081757 -1.949474 -0.823544
  H -1.949474 2.081757 0.823544
  H 1.710690 0.579609 0.003110
  H 0.579609 -1.710690 -0.003110
  H 1.949474 -2.081757 0.823544
  N -1.596691 1.596691 0.006345
  N -1.596691 -1.596691 -0.006345
  N 1.596691 1.596691 -0.006345
  N 1.596691 -1.596691 0.006345
  H 2.084236 1.965445 0.802282
  H -1.965445 2.084236 -0.802282
  H -2.084236 -1.965445 0.802282
  H 1.965445 -2.084236 -0.802282
 }
 basis=cc-pVTZ
 angstrom
 
 
 hf; papt;mp3
 
 
 
 {put,xml;noorbitals,nobasis}
 Commands initialized (841), CPU time= 0.01 sec, 704 directives.
 Default parameters read. Elapsed time= 0.08 sec

 Checking input...
 Passed
1


                                         ***  PROGRAM SYSTEM MOLPRO  ***
                                       Copyright, TTI GmbH Stuttgart, 2015
                                    Version 2023.1 linked Mon Jun  5 13:27:10 2023


 **********************************************************************************************************************************
 LABEL *                                                                                                                                                                 
  (16 PROC) 64 bit serial version                                                        DATE: 03-Aug-23          TIME: 13:17:00  
 **********************************************************************************************************************************

 SHA1:             9738a14712571edd23541b6d7c4f3a3d766f8287
 **********************************************************************************************************************************

 Memory per process:       805 MW
 Total memory per node:   1074 MW
 Total GA space:           268 MW

 GA preallocation disabled
 GA check enabled

 Geometry recognized as XYZ


 Variable memory set to 805.3 MW

 SETTING BASIS          =    CC-PVTZ


 Recomputing integrals since basis changed


 Using spherical harmonics

 Library entry H      S cc-pVTZ              selected for orbital group  1
 Library entry H      P cc-pVTZ              selected for orbital group  1
 Library entry H      D cc-pVTZ              selected for orbital group  1
 Library entry N      S cc-pVTZ              selected for orbital group  2
 Library entry N      P cc-pVTZ              selected for orbital group  2
 Library entry N      D cc-pVTZ              selected for orbital group  2
 Library entry N      F cc-pVTZ              selected for orbital group  2


 PROGRAM * SEWARD (Integral evaluation for generally contracted gaussian basis sets)     Author: Roland Lindh, 1990

 Geometry written to block  1 of record 700


 Point group  C2  



 ATOMIC COORDINATES

 NR  ATOM    CHARGE       X              Y              Z

   1  H       1.00   -3.232735584   -1.095302269    0.005877048
   2  H       1.00    3.232735584    1.095302269    0.005877048
   3  H       1.00   -1.095302269    3.232735584   -0.005877048
   4  H       1.00    1.095302269   -3.232735584   -0.005877048
   5  H       1.00    3.933950588    3.683971947   -1.556272612
   6  H       1.00   -3.933950588   -3.683971947   -1.556272612
   7  H       1.00   -3.683971947    3.933950588    1.556272612
   8  H       1.00    3.683971947   -3.933950588    1.556272612
   9  N       7.00   -3.017308696    3.017308696    0.011990312
  10  N       7.00    3.017308696   -3.017308696    0.011990312
  11  N       7.00   -3.017308696   -3.017308696   -0.011990312
  12  N       7.00    3.017308696    3.017308696   -0.011990312
  13  H       1.00    3.938635219    3.714152763    1.516093255
  14  H       1.00   -3.938635219   -3.714152763    1.516093255
  15  H       1.00   -3.714152763    3.938635219   -1.516093255
  16  H       1.00    3.714152763   -3.938635219   -1.516093255

 Bond lengths in Bohr (Angstrom)

  1-11  1.934124269   2-12  1.934124269   3- 9  1.934124269   4-10  1.934124269   5-12  1.915588701
       ( 1.023494486)       ( 1.023494486)       ( 1.023494486)       ( 1.023494486)       ( 1.013685886)

  6-11  1.915588701   7- 9  1.915588701   8-10  1.915588701   9-15  1.915587013  10-16  1.915587013
       ( 1.013685886)       ( 1.013685886)       ( 1.013685886)       ( 1.013684993)       ( 1.013684993)

 11-14  1.915587013  12-13  1.915587013
       ( 1.013684993)       ( 1.013684993)

 Bond angles

  1-11- 6  107.45692246   1-11-14  107.49104102   2-12- 5  107.45692246   2-12-13  107.49104102

  3- 9- 7  107.45692246   3- 9-15  107.49104102   4-10- 8  107.45692246   4-10-16  107.49104102

  5-12-13  106.63876120   6-11-14  106.63876120   7- 9-15  106.63876120   8-10-16  106.63876120

 NUCLEAR CHARGE:                   40
 NUMBER OF PRIMITIVE AOS:         392
 NUMBER OF SYMMETRY AOS:          360
 NUMBER OF CONTRACTIONS:          288   (  144A   +  144B   )
 NUMBER OF INNER CORE ORBITALS:     0   (    0A   +    0B   )
 NUMBER OF OUTER CORE ORBITALS:     4   (    2A   +    2B   )
 NUMBER OF VALENCE ORBITALS:       28   (   14A   +   14B   )


 NUCLEAR REPULSION ENERGY  135.32155502


 Eigenvalues of metric

         1 0.141E-02 0.153E-02 0.283E-02 0.326E-02 0.326E-02 0.352E-02 0.357E-02 0.438E-02
         2 0.141E-02 0.141E-02 0.326E-02 0.326E-02 0.356E-02 0.356E-02 0.362E-02 0.362E-02


 Contracted 2-electron integrals neglected if value below      1.0D-11
 AO integral compression algorithm  1   Integral accuracy      1.0D-11

     1470.628 MB (compressed) written to integral file ( 37.9%)


 NUMBER OF SORTED TWO-ELECTRON INTEGRALS:  435984840.     BUFFER LENGTH:  32768
 NUMBER OF SEGMENTS:  28  SEGMENT LENGTH:   15999503      RECORD LENGTH: 524288

 Memory used in sort:      16.56 MW

 SORT1 READ   484617832. AND WROTE   356599388. INTEGRALS IN   1035 RECORDS. CPU TIME:     7.68 SEC, REAL TIME:    10.51 SEC
 SORT2 READ   356599388. AND WROTE   435984840. INTEGRALS IN   5610 RECORDS. CPU TIME:     8.81 SEC, REAL TIME:    10.85 SEC

 FILE SIZES:   FILE 1:  1503.0 MBYTE,  FILE 4:  4341.2 MBYTE,   TOTAL:   5844.1 MBYTE

 OPERATOR DM      FOR CENTER  0  COORDINATES:    0.000000    0.000000    0.000000


 **********************************************************************************************************************************
 DATASETS  * FILE   NREC   LENGTH (MB)   RECORD NAMES
              1      19     1356.95       500      610      700      900      950      970     1000      129      960     1100   
                                          VAR    BASINP    GEOM    SYMINP    ZMAT    AOBASIS   BASIS     P2S    ABASIS      S 
                                         1400     1410     1200     1210     1080     1600     1650     1300     1700   
                                           T        V       H0       H01     AOSYM     SMH    MOLCAS    ERIS     OPER   

 PROGRAMS   *        TOTAL       INT
 CPU TIMES  *        55.14     55.01
 REAL TIME  *        63.10 SEC
 DISK USED  *         5.44 GB
 **********************************************************************************************************************************


 Program * Restricted Hartree-Fock

 Orbital guess generated from atomic densities. Full valence occupancy:   16  16

 Initial occupancy:  10  10

 NELEC=   40   SYM=1   MS2= 0   THRE=1.0D-08   THRD=3.2D-06   THRG=3.2D-06  HFMA2=F  DIIS_START=2   DIIS_MAX=10   DIIS_INCORE=F

 Level shifts:    0.00 (CLOSED)    0.00 (OPEN)    0.30 (GAP_MIN)

 ITER           ETOT              DE          GRAD        DDIFF     DIIS  NEXP   TIME(IT)  TIME(TOT)  DIAG
   1     -224.79711790    -224.79711790     0.00D+00     0.60D-01     0     0       3.55      6.96    start
   2     -224.87223236      -0.07511446     0.59D-02     0.81D-02     1     0       3.63     10.59    diag
   3     -224.88792562      -0.01569327     0.28D-02     0.25D-02     2     0       3.56     14.15    diag
   4     -224.88879835      -0.00087273     0.47D-03     0.59D-03     3     0       3.59     17.74    diag
   5     -224.88883960      -0.00004124     0.93D-04     0.12D-03     4     0       3.60     21.34    diag
   6     -224.88884218      -0.00000258     0.20D-04     0.35D-04     5     0       3.48     24.82    diag
   7     -224.88884231      -0.00000013     0.43D-05     0.83D-05     6     0       3.49     28.31    diag
   8     -224.88884232      -0.00000001     0.11D-05     0.24D-05     7     0       3.50     31.81    fixocc
   9     -224.88884232      -0.00000000     0.24D-06     0.37D-06     0     0       3.56     35.37    diag

 Final occupancy:  10  10

 !RHF STATE 1.1 Energy               -224.888842321688
  RHF One-electron energy            -574.372204438604
  RHF Two-electron energy             214.161807095416
  RHF Kinetic energy                  224.579660925566
  RHF Nuclear energy                  135.321555021500
  RHF Virial quotient                  -1.001376711474

 !RHF STATE 1.1 Dipole moment           0.00000000     0.00000000    -0.00000000
 Dipole moment /Debye                   0.00000000     0.00000000    -0.00000000

 Orbital energies:

           1.1          2.1          3.1          4.1          5.1          6.1          7.1          8.1          9.1         10.1
    -15.514834   -15.514823    -1.125002    -1.110453    -0.617041    -0.610088    -0.604571    -0.597464    -0.426506    -0.393045

          11.1         12.1
      0.132014     0.191567

           1.2          2.2          3.2          4.2          5.2          6.2          7.2          8.2          9.2         10.2
    -15.514829   -15.514829    -1.117613    -1.117613    -0.607239    -0.607239    -0.605377    -0.605377    -0.410165    -0.410165

          11.2         12.2
      0.164676     0.164676


 HOMO     10.1    -0.393045 =     -10.6953eV
 LUMO     11.1     0.132014 =       3.5923eV
 LUMO-HOMO         0.525060 =      14.2876eV

 Orbitals saved in record  2100.2


 **********************************************************************************************************************************
 DATASETS  * FILE   NREC   LENGTH (MB)   RECORD NAMES
              1      19     1356.95       500      610      700      900      950      970     1000      129      960     1100   
                                          VAR    BASINP    GEOM    SYMINP    ZMAT    AOBASIS   BASIS     P2S    ABASIS      S 
                                         1400     1410     1200     1210     1080     1600     1650     1300     1700   
                                           T        V       H0       H01     AOSYM     SMH    MOLCAS    ERIS     OPER   

              2       4        1.31       700     1000      520     2100   
                                         GEOM     BASIS   MCVARS     RHF  

 PROGRAMS   *        TOTAL    HF-SCF       INT
 CPU TIMES  *        90.51     35.37     55.01
 REAL TIME  *       103.13 SEC
 DISK USED  *         5.44 GB
 **********************************************************************************************************************************


 PROGRAM * PAPT (Closed-shell)     Authors: C. Hampel, H.-J. Werner, 1991, P.J. Knowles, 2021


 Convergence thresholds:  THRVAR = 1.00D-08  THRDEN = 1.00D-06

 Number of core orbitals:           4 (   2   2 )
 Number of closed-shell orbitals:  16 (   8   8 )
 Number of external orbitals:     268 ( 134 134 )

 Molecular orbitals read from record     2100.2  Type=RHF/CANONICAL  

 Number of N-1 electron functions:              16
 Number of N-2 electron functions:             136
 Number of singly external CSFs:              2144
 Number of doubly external CSFs:           4598880
 Total number of CSFs:                     4601025

 Length of J-op  integral file:               0.00 MB
 Length of K-op  integral file:               2.91 MB

 Integral transformation finished. Total CPU:   9.06 sec, npass=  1  Memory used:   7.02 MW

 Reference energy:                   -224.88884232

                        CORR.ENERGY   TOTAL ENERGY   ENERGY CHANGE
 MP2:                   -0.95490797  -225.84375029    -0.95490797

 SCS-MP2 correlation energy:           -0.95943369   (PS=  1.200000  PT=  0.333333)
 SCS-MP2 total energy:               -225.84827601
 Iteration:   1     0.1962D+00
 Iteration:   2     0.2087D+00
 Iteration:   3     0.5692D-01
 Iteration:   4     0.2659D-01
 Iteration:   5     0.3924D+00
 Iteration:   6     0.9046D-02
 Iteration:   7     0.1922D-01
 Iteration:   8     0.1973D-02
 Iteration:   9     0.1034D-02
 Iteration:  10     0.5275D-02
 Iteration:  11     0.1886D-03
 Iteration:  12     0.1477D-03
 Iteration:  13     0.1853D-03
 Iteration:  14     0.3513D-04
 PAPT operator written to  7000.1
 PAPT orbitals and eigenvalues written to  7000.2

 MP3(D):                -0.99765937  -225.88650169    -0.04275141



 RESULTS
 =======

  Reference energy                   -224.888842321688
  MP3 singlet pair energy              -0.691702897679
  MP3 triplet pair energy              -0.305956475137
  MP3 correlation energy               -0.997659372816

 !MP3 total energy                   -225.886501694504

 Timing summary (sec):

 STEP                 CPU(USER)    SYS     CPU(TOT)    WALL
 Transformation          9.35      0.54      9.89     10.18
 CCSD iterations       119.87      0.69    120.56     31.72

 Program statistics:

 Available memory in ccsd:               805305334
 Min. memory needed in ccsd:              11225371
 Max. memory used in ccsd:                15447995
 Max. memory used in cckext:              14635789 ( 1 integral passes)



 **********************************************************************************************************************************
 DATASETS  * FILE   NREC   LENGTH (MB)   RECORD NAMES
              1      21     1422.37       500      610      700      900      950      970     1000      129      960     1100   
                                          VAR    BASINP    GEOM    SYMINP    ZMAT    AOBASIS   BASIS     P2S    ABASIS      S 
                                         1400     1410     1200     1210     1080     1600     1650     1300     1700     1380   
                                           T        V       H0       H01     AOSYM     SMH    MOLCAS    ERIS     OPER     JKOP   
                                         7000   
                                        PAPT AO    

              2       5        2.36       700     1000      520     2100     7000   
                                         GEOM     BASIS   MCVARS     RHF     PAPT   

 PROGRAMS   *        TOTAL      PAPT    HF-SCF       INT
 CPU TIMES  *       128.98     38.46     35.37     55.01
 REAL TIME  *       145.08 SEC
 DISK USED  *         5.44 GB
 **********************************************************************************************************************************


 PROGRAM * MP3 (Closed-shell)     Authors: C. Hampel, H.-J. Werner, 1991, M. Deegan, P.J. Knowles, 1992


 Convergence thresholds:  THRVAR = 1.00D-08  THRDEN = 1.00D-06

 Number of core orbitals:           4 (   2   2 )
 Number of closed-shell orbitals:  16 (   8   8 )
 Number of external orbitals:     268 ( 134 134 )

 Molecular orbitals read from record     7000.2  Type=PAPT/CANONICAL (state 1.1)

 Number of N-1 electron functions:              16
 Number of N-2 electron functions:             136
 Number of singly external CSFs:              2144
 Number of doubly external CSFs:           4598880
 Total number of CSFs:                     4601025

 Length of J-op  integral file:               0.00 MB
 Length of K-op  integral file:               2.91 MB

 Integral transformation finished. Total CPU:   8.66 sec, npass=  1  Memory used:   7.02 MW
 Orbital energies read from record       7000.2  Type=PAPT/CANONICAL (state 1.1)

 Reference energy:                   -224.88884232

                        CORR.ENERGY   TOTAL ENERGY   ENERGY CHANGE
 MP2:                   -1.00651494  -225.89535726    -1.00651494

 SCS-MP2 correlation energy:           -1.01411237   (PS=  1.200000  PT=  0.333333)
 SCS-MP2 total energy:               -225.90295469

 MP3(D):                -1.00664238  -225.89548470    -0.00012744



 RESULTS
 =======

  Reference energy                   -224.888842321688
  MP3 singlet pair energy              -0.701568321540
  MP3 triplet pair energy              -0.305074059197
  MP3 correlation energy               -1.006642380736

 !MP3 total energy                   -225.895484702424

 Timing summary (sec):

 STEP                 CPU(USER)    SYS     CPU(TOT)    WALL
 Transformation         12.52      0.79     13.31     13.54
 CCSD iterations       148.19      0.48    148.67     19.56

 Program statistics:

 Available memory in ccsd:               805305334
 Min. memory needed in ccsd:              11225371
 Max. memory used in ccsd:                15447995
 Max. memory used in cckext:              14635789 ( 1 integral passes)



 **********************************************************************************************************************************
 DATASETS  * FILE   NREC   LENGTH (MB)   RECORD NAMES
              1      21     1422.37       500      610      700      900      950      970     1000      129      960     1100   
                                          VAR    BASINP    GEOM    SYMINP    ZMAT    AOBASIS   BASIS     P2S    ABASIS      S 
                                         1400     1410     1200     1210     1080     1600     1650     1300     1700     1380   
                                           T        V       H0       H01     AOSYM     SMH    MOLCAS    ERIS     OPER     JKOP   
                                         7000   
                                        PAPT AO    

              2       5        2.36       700     1000      520     2100     7000   
                                         GEOM     BASIS   MCVARS     RHF     PAPT   

 PROGRAMS   *        TOTAL       MP3      PAPT    HF-SCF       INT
 CPU TIMES  *       160.47     31.48     38.46     35.37     55.01
 REAL TIME  *       178.22 SEC
 DISK USED  *         5.44 GB
 **********************************************************************************************************************************

 Dump information in style XML to xml output                                                                      

 Orbitals will not be exported.

 **********************************************************************************************************************************

 MP3/cc-pVTZ energy=   -225.895484702424

             MP3            PAPT          HF-SCF
   -225.89548470   -225.88650169   -224.88884232
 **********************************************************************************************************************************
 Molpro calculation terminated
