
 Working directory              : /home/jovyan/scratch/molpro.7r9TTTEx28/
 Global scratch directory       : /home/jovyan/scratch/molpro.7r9TTTEx28/
 Wavefunction directory         : /home/jovyan/wfu/
 Main file repository           : /home/jovyan/scratch/molpro.7r9TTTEx28/

 id        : cardiff

 Nodes                nprocs
 jupyter-c-2efrancisan    1
 GA implementation: MPI file
 GA implementation (serial work in mppx): MPI file

 Using customized tuning parameters: mindgm=1; mindgv=20; mindgc=4; mindgr=1; noblas=0; minvec=7
 default implementation of scratch files=df  


 Variables initialized (1031), CPU time= 0.00 sec
 
 
 
 geometry={
 12
  3NH3TS (Full point group Cs)
  H 0.000000 1.039215 0.000000
  H 0.975536 -0.391735 0.000000
  H -0.718624 -0.750749 0.000000
  H 1.615871 1.288560 0.821991
  H 0.276209 -2.048201 -0.821994
  H -1.974443 0.792779 -0.810562
  N 1.170289 0.899018 0.000000
  N 0.223683 -1.458692 0.000000
  N -1.407141 0.564959 0.000000
  H 0.276209 -2.048201 0.821994
  H -1.974443 0.792779 0.810562
  H 1.615871 1.288560 -0.821991
 }
 basis=cc-pVDZ
 angstrom
 
 
 hf; ccsd
 
 
 
 {put,xml;noorbitals,nobasis}
 Commands initialized (841), CPU time= 0.01 sec, 704 directives.
 Default parameters read. Elapsed time= 0.08 sec

 Checking input...
 Passed
1


                                         ***  PROGRAM SYSTEM MOLPRO  ***
                                       Copyright, TTI GmbH Stuttgart, 2015
                                    Version 2023.1 linked Mon Jun  5 13:27:10 2023


 **********************************************************************************************************************************
 LABEL *                                                                                                                                                                 
  (16 PROC) 64 bit serial version                                                        DATE: 03-Aug-23          TIME: 13:46:01  
 **********************************************************************************************************************************

 SHA1:             9738a14712571edd23541b6d7c4f3a3d766f8287
 **********************************************************************************************************************************

 Memory per process:       805 MW
 Total memory per node:   1074 MW
 Total GA space:           268 MW

 GA preallocation disabled
 GA check enabled

 Geometry recognized as XYZ


 Variable memory set to 805.3 MW

 SETTING BASIS          =    CC-PVDZ


 Recomputing integrals since basis changed


 Using spherical harmonics

 Library entry H      S cc-pVDZ              selected for orbital group  1
 Library entry H      P cc-pVDZ              selected for orbital group  1
 Library entry N      S cc-pVDZ              selected for orbital group  2
 Library entry N      P cc-pVDZ              selected for orbital group  2
 Library entry N      D cc-pVDZ              selected for orbital group  2


 PROGRAM * SEWARD (Integral evaluation for generally contracted gaussian basis sets)     Author: Roland Lindh, 1990

 Geometry written to block  1 of record 700


 Point group  Cs  



 ATOMIC COORDINATES

 NR  ATOM    CHARGE       X              Y              Z

   1  H       1.00    0.000000000    1.963831735    0.000000000
   2  H       1.00    1.843495865   -0.740271863    0.000000000
   3  H       1.00   -1.358002547   -1.418709998    0.000000000
   4  H       1.00    3.053553643    2.435025495    1.553337867
   5  H       1.00    3.053553643    2.435025495   -1.553337867
   6  H       1.00    0.521959363   -3.870538938   -1.553343536
   7  H       1.00    0.521959363   -3.870538938    1.553343536
   8  H       1.00   -3.731156519    1.498135187   -1.531740187
   9  H       1.00   -3.731156519    1.498135187    1.531740187
  10  N       7.00    2.211525697    1.698897801    0.000000000
  11  N       7.00    0.422699609   -2.756528380    0.000000000
  12  N       7.00   -2.659111109    1.067617782    0.000000000

 Bond lengths in Bohr (Angstrom)

  1-10  2.227338299   2-10  2.466778184   2-11  2.466566914   3-11  2.227253508   4-10  1.914093408
       ( 1.178656669)       ( 1.305362799)       ( 1.305251000)       ( 1.178611799)       ( 1.012894611)

  5-10  1.914093408   6-11  1.914091994   7-11  1.914091994   8-12  1.918555341   9-12  1.918555341
       ( 1.012894611)       ( 1.012893863)       ( 1.012893863)       ( 1.015255765)       ( 1.015255765)

 Bond angles

  1-10- 2   88.25105007   1-10- 4  113.01933305   1-10- 5  113.01933305   2-10- 4  116.48162287

  2-10- 5  116.48162287   2-11- 3   88.25415736   2-11- 6  116.47963378   2-11- 7  116.47963378

  3-11- 6  113.01961520   3-11- 7  113.01961520   4-10- 5  108.49072284   6-11- 7  108.49142118

  8-12- 9  105.95175618  10- 2-11  153.40903249

 NUCLEAR CHARGE:                   30
 NUMBER OF PRIMITIVE AOS:         144
 NUMBER OF SYMMETRY AOS:          141
 NUMBER OF CONTRACTIONS:           87   (   57A'  +   30A"  )
 NUMBER OF INNER CORE ORBITALS:     0   (    0A'  +    0A"  )
 NUMBER OF OUTER CORE ORBITALS:     3   (    3A'  +    0A"  )
 NUMBER OF VALENCE ORBITALS:       21   (   15A'  +    6A"  )


 NUCLEAR REPULSION ENERGY   94.97821859

 Eigenvalues of metric

         1 0.102E-01 0.133E-01 0.155E-01 0.331E-01 0.342E-01 0.369E-01 0.371E-01 0.401E-01
         2 0.360E-01 0.373E-01 0.445E-01 0.714E-01 0.732E-01 0.786E-01 0.143E+00 0.144E+00


 Contracted 2-electron integrals neglected if value below      1.0D-11
 AO integral compression algorithm  1   Integral accuracy      1.0D-11

     17.564 MB (compressed) written to integral file ( 51.2%)


 NUMBER OF SORTED TWO-ELECTRON INTEGRALS:    3781311.     BUFFER LENGTH:  32768
 NUMBER OF SEGMENTS:   1  SEGMENT LENGTH:    3781311      RECORD LENGTH: 524288

 Memory used in sort:       4.34 MW

 SORT1 READ     4305963. AND WROTE     3703738. INTEGRALS IN     11 RECORDS. CPU TIME:     0.07 SEC, REAL TIME:     0.17 SEC
 SORT2 READ     3703738. AND WROTE     3781311. INTEGRALS IN     67 RECORDS. CPU TIME:     0.12 SEC, REAL TIME:     0.14 SEC

 FILE SIZES:   FILE 1:    48.0 MBYTE,  FILE 4:    46.2 MBYTE,   TOTAL:     94.2 MBYTE

 OPERATOR DM      FOR CENTER  0  COORDINATES:    0.000000    0.000000    0.000000


 **********************************************************************************************************************************
 DATASETS  * FILE   NREC   LENGTH (MB)   RECORD NAMES
              1      19       43.42       500      610      700      900      950      970     1000      129      960     1100   
                                          VAR    BASINP    GEOM    SYMINP    ZMAT    AOBASIS   BASIS     P2S    ABASIS      S 
                                         1400     1410     1200     1210     1080     1600     1650     1300     1700   
                                           T        V       H0       H01     AOSYM     SMH    MOLCAS    ERIS     OPER   

 PROGRAMS   *        TOTAL       INT
 CPU TIMES  *         1.55      1.41
 REAL TIME  *         2.83 SEC
 DISK USED  *        90.31 MB
 **********************************************************************************************************************************


 Program * Restricted Hartree-Fock

 Orbital guess generated from atomic densities. Full valence occupancy:   18   6

 Initial occupancy:  12   3

 NELEC=   30   SYM=1   MS2= 0   THRE=1.0D-08   THRD=3.2D-06   THRG=3.2D-06  HFMA2=F  DIIS_START=2   DIIS_MAX=10   DIIS_INCORE=F

 Level shifts:    0.00 (CLOSED)    0.00 (OPEN)    0.30 (GAP_MIN)

 ITER           ETOT              DE          GRAD        DDIFF     DIIS  NEXP   TIME(IT)  TIME(TOT)  DIAG
   1     -168.43228617    -168.43228617     0.00D+00     0.15D+00     0     0       0.03      0.06    start
   2     -168.48428902      -0.05200285     0.10D-01     0.23D-01     1     0       0.03      0.09    diag
   3     -168.49761488      -0.01332586     0.50D-02     0.76D-02     2     0       0.04      0.13    diag
   4     -168.49823582      -0.00062095     0.86D-03     0.19D-02     3     0       0.03      0.16    diag
   5     -168.49827256      -0.00003674     0.23D-03     0.39D-03     4     0       0.04      0.20    diag
   6     -168.49827563      -0.00000307     0.60D-04     0.13D-03     5     0       0.03      0.23    diag
   7     -168.49827577      -0.00000013     0.11D-04     0.24D-04     6     0       0.03      0.26    diag
   8     -168.49827578      -0.00000001     0.27D-05     0.84D-05     7     0       0.03      0.29    fixocc
   9     -168.49827578      -0.00000000     0.48D-06     0.16D-05     8     0       0.04      0.33    diag
  10     -168.49827578      -0.00000000     0.80D-07     0.19D-06     0     0       0.03      0.36    diag/orth

 Final occupancy:  12   3

 !RHF STATE 1.1 Energy               -168.498275779514
  RHF One-electron energy            -417.879691078421
  RHF Two-electron energy             154.403196711796
  RHF Kinetic energy                  168.217293162079
  RHF Nuclear energy                   94.978218587111
  RHF Virial quotient                  -1.001670355123

 !RHF STATE 1.1 Dipole moment           0.88572899    -0.35589853     0.00000000
 Dipole moment /Debye                   2.25129854    -0.90460382     0.00000000

 Orbital energies:

           1.1          2.1          3.1          4.1          5.1          6.1          7.1          8.1          9.1         10.1
    -15.536157   -15.536115   -15.446781    -1.155483    -1.113488    -1.019679    -0.682530    -0.588807    -0.582827    -0.397952

          11.1         12.1         13.1         14.1
     -0.371789    -0.303843     0.179322     0.219144

           1.2          2.2          3.2          4.2          5.2
     -0.636249    -0.625431    -0.539516     0.253604     0.272124


 HOMO     12.1    -0.303843 =      -8.2680eV
 LUMO     13.1     0.179322 =       4.8796eV
 LUMO-HOMO         0.483165 =      13.1476eV

 Orbitals saved in record  2100.2


 **********************************************************************************************************************************
 DATASETS  * FILE   NREC   LENGTH (MB)   RECORD NAMES
              1      19       43.42       500      610      700      900      950      970     1000      129      960     1100   
                                          VAR    BASINP    GEOM    SYMINP    ZMAT    AOBASIS   BASIS     P2S    ABASIS      S 
                                         1400     1410     1200     1210     1080     1600     1650     1300     1700   
                                           T        V       H0       H01     AOSYM     SMH    MOLCAS    ERIS     OPER   

              2       4        0.63       700     1000      520     2100   
                                         GEOM     BASIS   MCVARS     RHF  

 PROGRAMS   *        TOTAL    HF-SCF       INT
 CPU TIMES  *         1.93      0.38      1.41
 REAL TIME  *         3.28 SEC
 DISK USED  *        90.31 MB
 **********************************************************************************************************************************


 PROGRAM * CCSD (Closed-shell coupled cluster)     Authors: C. Hampel, H.-J. Werner, 1991, M. Deegan, P.J. Knowles, 1992


 Convergence thresholds:  THRVAR = 1.00D-08  THRDEN = 1.00D-06

 Number of core orbitals:           3 (   3   0 )
 Number of closed-shell orbitals:  12 (   9   3 )
 Number of external orbitals:      72 (  45  27 )

 Molecular orbitals read from record     2100.2  Type=RHF/CANONICAL  

 Number of N-1 electron functions:              12
 Number of N-2 electron functions:              78
 Number of singly external CSFs:               486
 Number of doubly external CSFs:            189972
 Total number of CSFs:                      190459

 Length of J-op  integral file:               0.00 MB
 Length of K-op  integral file:               0.35 MB
 Length of 3-ext integral record:             0.00 MB

 Integral transformation finished. Total CPU:   0.17 sec, npass=  1  Memory used:   1.57 MW

 Reference energy:                   -168.49827578

 MP2 singlet pair energy:              -0.38249657
 MP2 triplet pair energy:              -0.22156491
 MP2 correlation energy:               -0.60406148
 MP2 total energy:                   -169.10233726

 SCS-MP2 correlation energy:           -0.59685850   (PS=  1.200000  PT=  0.333333)
 SCS-MP2 total energy:               -169.09513428

 ITER.      SQ.NORM     CORR.ENERGY   TOTAL ENERGY   ENERGY CHANGE        DEN1      VAR(S)    VAR(P)  DIIS     TIME  TIME/IT
   1      1.20017932    -0.63747532  -169.13575110    -0.03341384    -0.01928284  0.19D-02  0.29D-02  1  1     2.78     0.45
   2      1.21435349    -0.64068415  -169.13895993    -0.00320883    -0.01454574  0.35D-04  0.33D-03  2  2     3.22     0.47
   3      1.21840464    -0.64091436  -169.13919014    -0.00023021    -0.00242894  0.24D-04  0.16D-04  3  3     3.67     0.47
   4      1.21966869    -0.64094977  -169.13922555    -0.00003541    -0.00052790  0.14D-05  0.15D-05  4  4     4.11     0.47
   5      1.21993232    -0.64094172  -169.13921750     0.00000806    -0.00007981  0.34D-06  0.14D-06  5  5     4.54     0.48
   6      1.21999308    -0.64093819  -169.13921397     0.00000353    -0.00000948  0.61D-07  0.17D-07  6  6     4.99     0.48
   7      1.22001309    -0.64093817  -169.13921395     0.00000002    -0.00000107  0.10D-07  0.37D-08  6  2     5.43     0.48
   8      1.22002198    -0.64093777  -169.13921355     0.00000040    -0.00000100  0.14D-08  0.42D-09  6  1     5.88     0.48

 Norm of t1 vector:      0.06439030      S-energy:    -0.00000041      T1 diagnostic:  0.00929394
                                                                       D1 diagnostic:  0.02452300
                                                                       D2 diagnostic:  0.13927075 (internal)


 RESULTS
 =======

  Reference energy                   -168.498275779514
  CCSD singlet pair energy             -0.441143840330
  CCSD triplet pair energy             -0.199793524335
  CCSD correlation energy              -0.640937774029

 !CCSD total energy                  -169.139213553543

 Timing summary (sec):

 STEP                 CPU(USER)    SYS     CPU(TOT)    WALL
 Transformation          0.19      0.04      0.23      0.36
 CCSD iterations         5.72      0.23      5.95      3.87

 Program statistics:

 Available memory in ccsd:               805305780
 Min. memory needed in ccsd:                547921
 Max. memory used in ccsd:                  706870
 Max. memory used in cckext:                766757 ( 8 integral passes)



 **********************************************************************************************************************************
 DATASETS  * FILE   NREC   LENGTH (MB)   RECORD NAMES
              1      20       55.73       500      610      700      900      950      970     1000      129      960     1100   
                                          VAR    BASINP    GEOM    SYMINP    ZMAT    AOBASIS   BASIS     P2S    ABASIS      S 
                                         1400     1410     1200     1210     1080     1600     1650     1300     1700     1380   
                                           T        V       H0       H01     AOSYM     SMH    MOLCAS    ERIS     OPER     JKOP   

              2       4        0.63       700     1000      520     2100   
                                         GEOM     BASIS   MCVARS     RHF  

 PROGRAMS   *        TOTAL      CCSD    HF-SCF       INT
 CPU TIMES  *         5.72      3.79      0.38      1.41
 REAL TIME  *         7.55 SEC
 DISK USED  *        90.31 MB
 **********************************************************************************************************************************

 Dump information in style XML to xml output                                                                      

 Orbitals will not be exported.

 **********************************************************************************************************************************

 CCSD/cc-pVDZ energy=   -169.139213553543

            CCSD          HF-SCF
   -169.13921355   -168.49827578
 **********************************************************************************************************************************
 Molpro calculation terminated
