
 Working directory              : /home/jovyan/scratch/molpro.354PR0LuqE/
 Global scratch directory       : /home/jovyan/scratch/molpro.354PR0LuqE/
 Wavefunction directory         : /home/jovyan/wfu/
 Main file repository           : /home/jovyan/scratch/molpro.354PR0LuqE/

 id        : cardiff

 Nodes                nprocs
 jupyter-c-2efrancisan    1
 GA implementation: MPI file
 GA implementation (serial work in mppx): MPI file

 Using customized tuning parameters: mindgm=1; mindgv=20; mindgc=4; mindgr=1; noblas=0; minvec=7
 default implementation of scratch files=df  


 Variables initialized (1031), CPU time= 0.00 sec
 
 
 
 geometry={
 22
  C     0.0000000    0.0000000    0.7395831
  C     1.1315582   -0.3997245    1.4579412
  C     1.1319975   -0.4003733    2.8462384
  C     0.0000000    0.0000000    3.5470967
  C    -1.1319975    0.4003733    2.8462384
  C    -1.1315582    0.3997245    1.4579412
  C     0.0000000    0.0000000   -0.7395831
  C     1.1315582    0.3997245   -1.4579412
  C     1.1319975    0.4003733   -2.8462384
  C     0.0000000    0.0000000   -3.5470967
  C    -1.1319975   -0.4003733   -2.8462384
  C    -1.1315582   -0.3997245   -1.4579412
  H     2.0096598   -0.7362253    0.9219214
  H     2.0161092   -0.7223128    3.3820552
  H     0.0000000    0.0000000    4.6295229
  H    -2.0161092    0.7223128    3.3820552
  H    -2.0096598    0.7362253    0.9219214
  H     2.0096598    0.7362253   -0.9219214
  H     2.0161092    0.7223128   -3.3820552
  H     0.0000000    0.0000000   -4.6295229
  H    -2.0161092   -0.7223128   -3.3820552
  H    -2.0096598   -0.7362253   -0.9219214
 }
 basis=cc-pVTZ
 angstrom
 
 
 hf; ccsd
 
 
 
 {put,xml;noorbitals,nobasis}
 Commands initialized (841), CPU time= 0.01 sec, 704 directives.
 Default parameters read. Elapsed time= 0.08 sec

 Checking input...
 Passed
1


                                         ***  PROGRAM SYSTEM MOLPRO  ***
                                       Copyright, TTI GmbH Stuttgart, 2015
                                    Version 2023.1 linked Mon Jun  5 13:27:10 2023


 **********************************************************************************************************************************
 LABEL *                                                                                                                                                                 
  (16 PROC) 64 bit serial version                                                        DATE: 04-Aug-23          TIME: 07:47:05  
 **********************************************************************************************************************************

 SHA1:             9738a14712571edd23541b6d7c4f3a3d766f8287
 **********************************************************************************************************************************

 Memory per process:       805 MW
 Total memory per node:   1074 MW
 Total GA space:           268 MW

 GA preallocation disabled
 GA check enabled

 Geometry recognized as XYZ


 Variable memory set to 805.3 MW

 SETTING BASIS          =    CC-PVTZ


 Recomputing integrals since basis changed


 Using spherical harmonics

 Library entry C      S cc-pVTZ              selected for orbital group  1
 Library entry C      P cc-pVTZ              selected for orbital group  1
 Library entry C      D cc-pVTZ              selected for orbital group  1
 Library entry C      F cc-pVTZ              selected for orbital group  1
 Library entry H      S cc-pVTZ              selected for orbital group  2
 Library entry H      P cc-pVTZ              selected for orbital group  2
 Library entry H      D cc-pVTZ              selected for orbital group  2


 PROGRAM * SEWARD (Integral evaluation for generally contracted gaussian basis sets)     Author: Roland Lindh, 1990

 Geometry written to block  1 of record 700


 Point group  D2  



 ATOMIC COORDINATES

 NR  ATOM    CHARGE       X              Y              Z

   1  C       6.00    0.000000000    0.000000000    1.397609505
   2  C       6.00    0.000000000    0.000000000   -1.397609505
   3  C       6.00    2.138335092   -0.755369830    2.755109574
   4  C       6.00   -2.138335092    0.755369830    2.755109574
   5  C       6.00    2.138335092    0.755369830   -2.755109574
   6  C       6.00   -2.138335092   -0.755369830   -2.755109574
   7  C       6.00    2.139165249   -0.756595885    5.378611061
   8  C       6.00   -2.139165249    0.756595885    5.378611061
   9  C       6.00    2.139165249    0.756595885   -5.378611061
  10  C       6.00   -2.139165249   -0.756595885   -5.378611061
  11  C       6.00    0.000000000    0.000000000    6.703041301
  12  C       6.00    0.000000000    0.000000000   -6.703041301
  13  H       1.00    3.797706626   -1.391264183    1.742178954
  14  H       1.00   -3.797706626    1.391264183    1.742178954
  15  H       1.00    3.797706626    1.391264183   -1.742178954
  16  H       1.00   -3.797706626   -1.391264183   -1.742178954
  17  H       1.00    3.809894225   -1.364973368    6.391158066
  18  H       1.00   -3.809894225    1.364973368    6.391158066
  19  H       1.00    3.809894225    1.364973368   -6.391158066
  20  H       1.00   -3.809894225   -1.364973368   -6.391158066
  21  H       1.00    0.000000000    0.000000000    8.748530369
  22  H       1.00    0.000000000    0.000000000   -8.748530369

 Bond lengths in Bohr (Angstrom)

 1-2  2.795219011  1-3  2.643079072  1-4  2.643079072  2-5  2.643079072  2-6  2.643079072
     ( 1.479166200)     ( 1.398657212)     ( 1.398657212)     ( 1.398657212)     ( 1.398657212)

  3- 7  2.623501905   3-13  2.045459350   4- 8  2.623501905   4-14  2.045459350   5- 9  2.623501905
       ( 1.388297421)       ( 1.082410474)       ( 1.388297421)       ( 1.082410474)       ( 1.388297421)

  5-15  2.045459350   6-10  2.623501905   6-16  2.045459350   7-11  2.627276299   7-17  2.046145135
       ( 1.082410474)       ( 1.388297421)       ( 1.082410474)       ( 1.390294744)       ( 1.082773376)

  8-11  2.627276299   8-18  2.046145135   9-12  2.627276299   9-19  2.046145135  10-12  2.627276299
       ( 1.390294744)       ( 1.082773376)       ( 1.390294744)       ( 1.082773376)       ( 1.390294744)

 10-20  2.046145135  11-21  2.045489068  12-22  2.045489068
       ( 1.082773376)       ( 1.082426200)       ( 1.082426200)

 Bond angles

  1- 2- 5  120.90429317   1- 2- 6  120.90429317   1- 3- 7  120.93030479   1- 3-13  119.39508733

  1- 4- 8  120.93030479   1- 4-14  119.39508733   2- 1- 3  120.90429317   2- 1- 4  120.90429317

  2- 5- 9  120.93030479   2- 5-15  119.39508733   2- 6-10  120.93030479   2- 6-16  119.39508733

  3- 1- 4  118.19141366   3- 7-11  120.24611520   3- 7-17  119.68644493   4- 8-11  120.24611520

  4- 8-18  119.68644493   5- 2- 6  118.19141366   5- 9-12  120.24611520   5- 9-19  119.68644493

  6-10-12  120.24611520   6-10-20  119.68644493   7- 3-13  119.65704389   7-11- 8  119.45572385

  7-11-21  120.27213807   8- 4-14  119.65704389   8-11-21  120.27213807   9- 5-15  119.65704389

  9-12-10  119.45572385   9-12-22  120.27213807  10- 6-16  119.65704389  10-12-22  120.27213807

 11- 7-17  120.06548326  11- 8-18  120.06548326  12- 9-19  120.06548326  12-10-20  120.06548326

 NUCLEAR CHARGE:                   82
 NUMBER OF PRIMITIVE AOS:         734
 NUMBER OF SYMMETRY AOS:          664
 NUMBER OF CONTRACTIONS:          500   (  128A   +  122B3  +  122B2  +  128B1  )
 NUMBER OF INNER CORE ORBITALS:     0   (    0A   +    0B3  +    0B2  +    0B1  )
 NUMBER OF OUTER CORE ORBITALS:    12   (    4A   +    2B3  +    2B2  +    4B1  )
 NUMBER OF VALENCE ORBITALS:       58   (   15A   +   14B3  +   14B2  +   15B1  )


 NUCLEAR REPULSION ENERGY  601.35158889


 Eigenvalues of metric

         1 0.327E-04 0.300E-03 0.501E-03 0.589E-03 0.106E-02 0.125E-02 0.145E-02 0.157E-02
         2 0.185E-03 0.293E-03 0.562E-03 0.917E-03 0.976E-03 0.126E-02 0.147E-02 0.170E-02
         3 0.123E-03 0.293E-03 0.565E-03 0.939E-03 0.971E-03 0.124E-02 0.136E-02 0.164E-02
         4 0.329E-04 0.108E-03 0.377E-03 0.428E-03 0.640E-03 0.107E-02 0.125E-02 0.136E-02


 Contracted 2-electron integrals neglected if value below      1.0D-12
 AO integral compression algorithm  1   Integral accuracy      1.0D-12

     9532.080 MB (compressed) written to integral file ( 52.7%)


 NUMBER OF SORTED TWO-ELECTRON INTEGRALS: 1972757523.     BUFFER LENGTH:  32768
 NUMBER OF SEGMENTS:  62  SEGMENT LENGTH:   31999929      RECORD LENGTH: 262144

 Memory used in sort:      32.29 MW

 SORT1 READ  2262202288. AND WROTE  1919770769. INTEGRALS IN  11021 RECORDS. CPU TIME:    87.25 SEC, REAL TIME:   111.45 SEC
 SORT2 READ  1919770769. AND WROTE  1972757523. INTEGRALS IN  36362 RECORDS. CPU TIME:    43.06 SEC, REAL TIME:    56.55 SEC

 FILE SIZES:   FILE 1:  9567.6 MBYTE,  FILE 4: 23112.8 MBYTE,   TOTAL:  32680.3 MBYTE

 OPERATOR DM      FOR CENTER  0  COORDINATES:    0.000000    0.000000    0.000000


 **********************************************************************************************************************************
 DATASETS  * FILE   NREC   LENGTH (MB)   RECORD NAMES
              1      19     8325.76       500      610      700      900      950      970     1000      129      960     1100   
                                          VAR    BASINP    GEOM    SYMINP    ZMAT    AOBASIS   BASIS     P2S    ABASIS      S 
                                         1400     1410     1200     1210     1080     1600     1650     1300     1700   
                                           T        V       H0       H01     AOSYM     SMH    MOLCAS    ERIS     OPER   

 PROGRAMS   *        TOTAL       INT
 CPU TIMES  *       468.52    468.38
 REAL TIME  *       520.30 SEC
 DISK USED  *        30.44 GB
 **********************************************************************************************************************************


 Program * Restricted Hartree-Fock

 Orbital guess generated from atomic densities. Full valence occupancy:   19  16  16  19

 Initial occupancy:  12   9   9  11

 NELEC=   82   SYM=1   MS2= 0   THRE=1.0D-08   THRD=3.2D-06   THRG=3.2D-06  HFMA2=F  DIIS_START=2   DIIS_MAX=10   DIIS_INCORE=F

 Level shifts:    0.00 (CLOSED)    0.00 (OPEN)    0.30 (GAP_MIN)

 ITER           ETOT              DE          GRAD        DDIFF     DIIS  NEXP   TIME(IT)  TIME(TOT)  DIAG
   1     -460.28665633    -460.28665633     0.00D+00     0.69D-01     0     0       8.31     16.38    start
   2     -460.38707742      -0.10042109     0.39D-02     0.59D-02     1     0       8.36     24.74    diag
   3     -460.39794494      -0.01086753     0.14D-02     0.18D-02     2     0       8.28     33.02    diag
   4     -460.39961126      -0.00166632     0.50D-03     0.79D-03     3     0       8.30     41.32    diag
   5     -460.39963604      -0.00002478     0.70D-04     0.14D-03     4     0       8.36     49.68    diag
   6     -460.39964673      -0.00001069     0.43D-04     0.54D-04     5     0       8.41     58.09    diag
   7     -460.39964695      -0.00000022     0.40D-05     0.15D-04     6     0       8.34     66.43    diag
   8     -460.39964698      -0.00000003     0.12D-05     0.33D-05     7     0       8.37     74.80    fixocc
   9     -460.39964698      -0.00000001     0.45D-06     0.14D-05     8     0       8.33     83.13    diag
  10     -460.39964698      -0.00000000     0.19D-06     0.33D-06     0     0       8.39     91.52    diag/orth

 Final occupancy:  12   9   9  11

 !RHF STATE 1.1 Energy               -460.399646980879
  RHF One-electron energy           -1814.466034726096
  RHF Two-electron energy             752.714798851535
  RHF Kinetic energy                  459.863093892393
  RHF Nuclear energy                  601.351588893682
  RHF Virial quotient                  -1.001166767013

 !RHF STATE 1.1 Dipole moment           0.00000000     0.00000000     0.00000000
 Dipole moment /Debye                   0.00000000     0.00000000     0.00000000

 Orbital energies:

           1.1          2.1          3.1          4.1          5.1          6.1          7.1          8.1          9.1         10.1
    -11.244370   -11.234231   -11.232156   -11.231588    -1.170847    -1.054356    -0.852352    -0.719932    -0.654175    -0.585404

          11.1         12.1         13.1         14.1
     -0.484585    -0.338270     0.128947     0.144841

           1.2          2.2          3.2          4.2          5.2          6.2          7.2          8.2          9.2         10.2
    -11.233929   -11.231982    -1.020327    -0.842853    -0.640593    -0.591356    -0.503428    -0.491930    -0.300826     0.158924

          11.2
      0.168778

           1.3          2.3          3.3          4.3          5.3          6.3          7.3          8.3          9.3         10.3
    -11.233930   -11.231988    -1.011520    -0.810105    -0.607188    -0.581804    -0.518080    -0.481884    -0.369180     0.095955

          11.3
      0.178703

           1.4          2.4          3.4          4.4          5.4          6.4          7.4          8.4          9.4         10.4
    -11.243615   -11.234231   -11.232156   -11.231588    -1.142488    -0.982981    -0.790404    -0.681702    -0.615201    -0.520465

          11.4         12.4         13.4
     -0.338227     0.121846     0.151875


 HOMO      9.2    -0.300826 =      -8.1859eV
 LUMO     10.3     0.095955 =       2.6111eV
 LUMO-HOMO         0.396781 =      10.7970eV

 Orbitals saved in record  2100.2


 **********************************************************************************************************************************
 DATASETS  * FILE   NREC   LENGTH (MB)   RECORD NAMES
              1      19     8325.76       500      610      700      900      950      970     1000      129      960     1100   
                                          VAR    BASINP    GEOM    SYMINP    ZMAT    AOBASIS   BASIS     P2S    ABASIS      S 
                                         1400     1410     1200     1210     1080     1600     1650     1300     1700   
                                           T        V       H0       H01     AOSYM     SMH    MOLCAS    ERIS     OPER   

              2       4        1.79       700     1000      520     2100   
                                         GEOM     BASIS   MCVARS     RHF  

 PROGRAMS   *        TOTAL    HF-SCF       INT
 CPU TIMES  *       560.06     91.53    468.38
 REAL TIME  *       625.01 SEC
 DISK USED  *        30.44 GB
 **********************************************************************************************************************************


 PROGRAM * CCSD (Closed-shell coupled cluster)     Authors: C. Hampel, H.-J. Werner, 1991, M. Deegan, P.J. Knowles, 1992


 Convergence thresholds:  THRVAR = 1.00D-08  THRDEN = 1.00D-06

 Number of core orbitals:          12 (   4   2   2   4 )
 Number of closed-shell orbitals:  29 (   8   7   7   7 )
 Number of external orbitals:     459 ( 116 113 113 117 )

 Molecular orbitals read from record     2100.2  Type=RHF/CANONICAL  

 Number of N-1 electron functions:              29
 Number of N-2 electron functions:             435
 Number of singly external CSFs:              3329
 Number of doubly external CSFs:          22154502
 Total number of CSFs:                    22157832

 Length of J-op  integral file:               0.00 MB
 Length of K-op  integral file:               4.36 MB
 Length of 3-ext integral record:             0.00 MB

 Integral transformation finished. Total CPU: 134.97 sec, npass=  1  Memory used: 193.18 MW

 Reference energy:                   -460.39964698

 MP2 singlet pair energy:              -1.16160132
 MP2 triplet pair energy:              -0.72702554
 MP2 correlation energy:               -1.88862687
 MP2 total energy:                   -462.28827385

 SCS-MP2 correlation energy:           -1.84629304   (PS=  1.200000  PT=  0.333333)
 SCS-MP2 total energy:               -462.24594002

 ITER.      SQ.NORM     CORR.ENERGY   TOTAL ENERGY   ENERGY CHANGE        DEN1      VAR(S)    VAR(P)  DIIS     TIME  TIME/IT
   1      1.63225901    -1.91501955  -462.31466653    -0.02639269     0.02511113  0.77D-02  0.16D-01  1  1   848.27   156.56
   2      1.67675692    -1.92047288  -462.32011986    -0.00545333    -0.04603341  0.11D-03  0.17D-02  2  2  1002.48   158.46
   3      1.69243152    -1.92035383  -462.32000081     0.00011905    -0.00829326  0.45D-04  0.15D-03  3  3  1156.18   158.97
   4      1.69865521    -1.92052152  -462.32016850    -0.00016769    -0.00206498  0.36D-05  0.24D-04  4  4  1309.66   159.05
   5      1.70100652    -1.92060681  -462.32025379    -0.00008529    -0.00059457  0.37D-06  0.27D-05  5  5  1463.39   159.19
   6      1.70158262    -1.92059296  -462.32023994     0.00001385    -0.00008351  0.68D-07  0.22D-06  6  6  1617.07   159.52
   7      1.70166979    -1.92059247  -462.32023945     0.00000050    -0.00000759  0.98D-08  0.24D-07  6  2  1770.87   159.65
   8      1.70168970    -1.92059227  -462.32023925     0.00000020    -0.00000227  0.25D-08  0.26D-08  6  1  1924.49   159.65

 Norm of t1 vector:      0.11066452      S-energy:     0.00000230      T1 diagnostic:  0.01027494
                                                                       D1 diagnostic:  0.02805248
                                                                       D2 diagnostic:  0.19194469 (internal)


 RESULTS
 =======

  Reference energy                   -460.399646980878
  CCSD singlet pair energy             -1.273842987356
  CCSD triplet pair energy             -0.646751578671
  CCSD correlation energy              -1.920592269503

 !CCSD total energy                  -462.320239250381

 Timing summary (sec):

 STEP                 CPU(USER)    SYS     CPU(TOT)    WALL
 Transformation        136.10      9.17    145.27    148.99
 CCSD iterations      1789.59     36.34   1825.93   1278.66

 Program statistics:

 Available memory in ccsd:               805302992
 Min. memory needed in ccsd:              49902938
 Max. memory used in ccsd:                71005481
 Max. memory used in cckext:              58606657 ( 8 integral passes)



 **********************************************************************************************************************************
 DATASETS  * FILE   NREC   LENGTH (MB)   RECORD NAMES
              1      20    11318.39       500      610      700      900      950      970     1000      129      960     1100   
                                          VAR    BASINP    GEOM    SYMINP    ZMAT    AOBASIS   BASIS     P2S    ABASIS      S 
                                         1400     1410     1200     1210     1080     1600     1650     1300     1700     1380   
                                           T        V       H0       H01     AOSYM     SMH    MOLCAS    ERIS     OPER     JKOP   

              2       4        1.79       700     1000      520     2100   
                                         GEOM     BASIS   MCVARS     RHF  

 PROGRAMS   *        TOTAL      CCSD    HF-SCF       INT
 CPU TIMES  *      1925.46   1365.40     91.53    468.38
 REAL TIME  *      2052.88 SEC
 DISK USED  *        30.44 GB
 **********************************************************************************************************************************

 Dump information in style XML to xml output                                                                      

 Orbitals will not be exported.

 **********************************************************************************************************************************

 CCSD/cc-pVTZ energy=   -462.320239250381

            CCSD          HF-SCF
   -462.32023925   -460.39964698
 **********************************************************************************************************************************
 Molpro calculation terminated
