
 Working directory              : /home/jovyan/scratch/molpro.y4ltu5jXrQ/
 Global scratch directory       : /home/jovyan/scratch/molpro.y4ltu5jXrQ/
 Wavefunction directory         : /home/jovyan/wfu/
 Main file repository           : /home/jovyan/scratch/molpro.y4ltu5jXrQ/

 id        : cardiff

 Nodes                nprocs
 jupyter-c-2efrancisan    1
 GA implementation: MPI file
 GA implementation (serial work in mppx): MPI file

 Using customized tuning parameters: mindgm=1; mindgv=20; mindgc=4; mindgr=1; noblas=0; minvec=7
 default implementation of scratch files=df  


 Variables initialized (1031), CPU time= 0.01 sec
 
 
 
 geometry={
           12
     C          1.27609040     -0.77327344      0.00000000
     C          1.23134723      0.58905339      0.00000000
     C         -1.18192378      1.07324973      0.00000000
     N         -1.49435191     -0.19905547      0.00000000
     C         -1.06638519     -1.33840171      0.00000000
     H          1.42015815     -1.33084885     -0.91708935
     H          1.42015815     -1.33084885      0.91708935
     H          1.34536200      1.15022023     -0.91956788
     H          1.34536200      1.15022023      0.91956788
     H         -1.30031450      1.61932430      0.92900354
     H         -1.30031450      1.61932430     -0.92900354
     H         -1.69518802     -2.22896383      0.00000000
 }
 basis=cc-pVTZ
 angstrom
 
 
 hf; papt;mp4
 
 
 
 {put,xml;noorbitals,nobasis}
 Commands initialized (841), CPU time= 0.01 sec, 704 directives.
 Default parameters read. Elapsed time= 0.08 sec

 Checking input...
 Passed
1


                                         ***  PROGRAM SYSTEM MOLPRO  ***
                                       Copyright, TTI GmbH Stuttgart, 2015
                                    Version 2023.1 linked Mon Jun  5 13:27:10 2023


 **********************************************************************************************************************************
 LABEL *                                                                                                                                                                 
  (16 PROC) 64 bit serial version                                                        DATE: 03-Aug-23          TIME: 11:16:38  
 **********************************************************************************************************************************

 SHA1:             9738a14712571edd23541b6d7c4f3a3d766f8287
 **********************************************************************************************************************************

 Memory per process:       805 MW
 Total memory per node:   1074 MW
 Total GA space:           268 MW

 GA preallocation disabled
 GA check enabled

 Geometry recognized as XYZ


 Variable memory set to 805.3 MW

 SETTING BASIS          =    CC-PVTZ


 Recomputing integrals since basis changed


 Using spherical harmonics

 Library entry C      S cc-pVTZ              selected for orbital group  1
 Library entry C      P cc-pVTZ              selected for orbital group  1
 Library entry C      D cc-pVTZ              selected for orbital group  1
 Library entry C      F cc-pVTZ              selected for orbital group  1
 Library entry N      S cc-pVTZ              selected for orbital group  2
 Library entry N      P cc-pVTZ              selected for orbital group  2
 Library entry N      D cc-pVTZ              selected for orbital group  2
 Library entry N      F cc-pVTZ              selected for orbital group  2
 Library entry H      S cc-pVTZ              selected for orbital group  4
 Library entry H      P cc-pVTZ              selected for orbital group  4
 Library entry H      D cc-pVTZ              selected for orbital group  4


 PROGRAM * SEWARD (Integral evaluation for generally contracted gaussian basis sets)     Author: Roland Lindh, 1990

 Geometry written to block  1 of record 700


 Point group  Cs  



 ATOMIC COORDINATES

 NR  ATOM    CHARGE       X              Y              Z

   1  C       6.00    2.411461366   -1.461275021    0.000000000
   2  C       6.00    2.326909029    1.113149580    0.000000000
   3  C       6.00   -2.233512244    2.028148053    0.000000000
   4  N       7.00   -2.823915844   -0.376160322    0.000000000
   5  C       6.00   -2.015175952   -2.529212677    0.000000000
   6  H       1.00    2.683709957   -2.514939840   -1.733047703
   7  H       1.00    2.683709957   -2.514939840    1.733047703
   8  H       1.00    2.542365718    2.173601218   -1.737731446
   9  H       1.00    2.542365718    2.173601218    1.737731446
  10  H       1.00   -2.457238281    3.060079434    1.755562259
  11  H       1.00   -2.457238281    3.060079434   -1.755562259
  12  H       1.00   -3.203441088   -4.212131180    0.000000000

 Bond lengths in Bohr (Angstrom)

 1-2  2.575812711  1-6  2.046407385  1-7  2.046407385  2-8  2.047117447  2-9  2.047117447
     ( 1.363061386)     ( 1.082912153)     ( 1.082912153)     ( 1.083287901)     ( 1.083287901)

  3- 4  2.475737299   3-10  2.048642126   3-11  2.048642126   4- 5  2.299933619   5-12  2.060142889
       ( 1.310103759)       ( 1.084094726)       ( 1.084094726)       ( 1.217072458)       ( 1.090180668)

 Bond angles

  1-2-8  120.94986755   1-2-9  120.94986755   2-1-6  121.26350260   2-1-7  121.26350260

  3- 4- 5  145.61597334   4- 3-10  117.58982266   4- 3-11  117.58982266   4- 5-12  124.18765139

  6- 1- 7  115.74639928   8- 2- 9  116.17740812  10- 3-11  117.94932410

 NUCLEAR CHARGE:                   38
 NUMBER OF PRIMITIVE AOS:         354
 NUMBER OF SYMMETRY AOS:          322
 NUMBER OF CONTRACTIONS:          248   (  152A'  +   96A"  )
 NUMBER OF INNER CORE ORBITALS:     0   (    0A'  +    0A"  )
 NUMBER OF OUTER CORE ORBITALS:     5   (    5A'  +    0A"  )
 NUMBER OF VALENCE ORBITALS:       27   (   19A'  +    8A"  )


 NUCLEAR REPULSION ENERGY  157.98626806


 Eigenvalues of metric

         1 0.287E-03 0.105E-02 0.124E-02 0.132E-02 0.141E-02 0.150E-02 0.160E-02 0.175E-02
         2 0.866E-03 0.149E-02 0.184E-02 0.368E-02 0.792E-02 0.910E-02 0.988E-02 0.123E-01


 Contracted 2-electron integrals neglected if value below      1.0D-11
 AO integral compression algorithm  1   Integral accuracy      1.0D-11

     864.551 MB (compressed) written to integral file ( 41.3%)


 NUMBER OF SORTED TWO-ELECTRON INTEGRALS:  240872406.     BUFFER LENGTH:  32768
 NUMBER OF SEGMENTS:  16  SEGMENT LENGTH:   15999503      RECORD LENGTH: 524288

 Memory used in sort:      16.56 MW

 SORT1 READ   262056739. AND WROTE   213606766. INTEGRALS IN    617 RECORDS. CPU TIME:     4.46 SEC, REAL TIME:     6.11 SEC
 SORT2 READ   213606766. AND WROTE   240872406. INTEGRALS IN   3298 RECORDS. CPU TIME:     4.80 SEC, REAL TIME:     5.79 SEC

 FILE SIZES:   FILE 1:   896.4 MBYTE,  FILE 4:  2588.0 MBYTE,   TOTAL:   3484.3 MBYTE

 OPERATOR DM      FOR CENTER  0  COORDINATES:    0.000000    0.000000    0.000000


 **********************************************************************************************************************************
 DATASETS  * FILE   NREC   LENGTH (MB)   RECORD NAMES
              1      19      812.95       500      610      700      900      950      970     1000      129      960     1100   
                                          VAR    BASINP    GEOM    SYMINP    ZMAT    AOBASIS   BASIS     P2S    ABASIS      S 
                                         1400     1410     1200     1210     1080     1600     1650     1300     1700   
                                           T        V       H0       H01     AOSYM     SMH    MOLCAS    ERIS     OPER   

 PROGRAMS   *        TOTAL       INT
 CPU TIMES  *        32.79     32.66
 REAL TIME  *        38.41 SEC
 DISK USED  *         3.25 GB
 **********************************************************************************************************************************


 Program * Restricted Hartree-Fock

 Orbital guess generated from atomic densities. Full valence occupancy:   24   8

 Initial occupancy:  15   4

 NELEC=   38   SYM=1   MS2= 0   THRE=1.0D-08   THRD=3.2D-06   THRG=3.2D-06  HFMA2=F  DIIS_START=2   DIIS_MAX=10   DIIS_INCORE=F

 Level shifts:    0.00 (CLOSED)    0.00 (OPEN)    0.30 (GAP_MIN)

 ITER           ETOT              DE          GRAD        DDIFF     DIIS  NEXP   TIME(IT)  TIME(TOT)  DIAG
   1     -209.81609562    -209.81609562     0.00D+00     0.65D-01     0     0       1.99      3.88    start
   2     -209.87253856      -0.05644294     0.42D-02     0.66D-02     1     0       1.96      5.84    diag
   3     -209.88752647      -0.01498791     0.24D-02     0.25D-02     2     0       1.96      7.80    diag
   4     -209.89023957      -0.00271310     0.62D-03     0.11D-02     3     0       1.98      9.78    diag
   5     -209.89076779      -0.00052822     0.28D-03     0.40D-03     4     0       1.98     11.76    diag
   6     -209.89118252      -0.00041473     0.15D-03     0.52D-03     5     0       2.00     13.76    diag
   7     -209.89128008      -0.00009756     0.72D-04     0.31D-03     6     0       1.98     15.74    diag
   8     -209.89128752      -0.00000745     0.32D-04     0.86D-04     7     0       2.00     17.74    fixocc
   9     -209.89128793      -0.00000040     0.10D-04     0.16D-04     8     0       1.96     19.70    diag
  10     -209.89128795      -0.00000003     0.20D-05     0.49D-05     9     0       1.97     21.67    diag/orth
  11     -209.89128796      -0.00000000     0.80D-06     0.16D-05     9     0       1.99     23.66    diag
  12     -209.89128796      -0.00000000     0.28D-06     0.45D-06     0     0       1.99     25.65    diag

 Final occupancy:  15   4

 !RHF STATE 1.1 Energy               -209.891287956992
  RHF One-electron energy            -595.690152129645
  RHF Two-electron energy             227.812596109494
  RHF Kinetic energy                  209.557213763010
  RHF Nuclear energy                  157.986268063159
  RHF Virial quotient                  -1.001594190856

 !RHF STATE 1.1 Dipole moment          -0.51168759     0.10226015     0.00000000
 Dipole moment /Debye                  -1.30058013     0.25991938     0.00000000

 Orbital energies:

           1.1          2.1          3.1          4.1          5.1          6.1          7.1          8.1          9.1         10.1
    -15.613922   -11.284628   -11.271567   -11.218415   -11.201250    -1.276733    -1.005743    -0.997317    -0.776837    -0.754202

          11.1         12.1         13.1         14.1         15.1         16.1         17.1
     -0.664367    -0.574823    -0.559720    -0.328706    -0.299020     0.115792     0.145791

           1.2          2.2          3.2          4.2          5.2          6.2
     -0.651234    -0.612327    -0.489228    -0.452473     0.140203     0.206314


 HOMO     15.1    -0.299020 =      -8.1367eV
 LUMO     16.1     0.115792 =       3.1509eV
 LUMO-HOMO         0.414812 =      11.2876eV

 Orbitals saved in record  2100.2


 **********************************************************************************************************************************
 DATASETS  * FILE   NREC   LENGTH (MB)   RECORD NAMES
              1      19      812.95       500      610      700      900      950      970     1000      129      960     1100   
                                          VAR    BASINP    GEOM    SYMINP    ZMAT    AOBASIS   BASIS     P2S    ABASIS      S 
                                         1400     1410     1200     1210     1080     1600     1650     1300     1700   
                                           T        V       H0       H01     AOSYM     SMH    MOLCAS    ERIS     OPER   

              2       4        1.09       700     1000      520     2100   
                                         GEOM     BASIS   MCVARS     RHF  

 PROGRAMS   *        TOTAL    HF-SCF       INT
 CPU TIMES  *        58.44     25.65     32.66
 REAL TIME  *        66.97 SEC
 DISK USED  *         3.25 GB
 **********************************************************************************************************************************


 PROGRAM * PAPT (Closed-shell)     Authors: C. Hampel, H.-J. Werner, 1991, P.J. Knowles, 2021


 Convergence thresholds:  THRVAR = 1.00D-08  THRDEN = 1.00D-06

 Number of core orbitals:           5 (   5   0 )
 Number of closed-shell orbitals:  14 (  10   4 )
 Number of external orbitals:     229 ( 137  92 )

 Molecular orbitals read from record     2100.2  Type=RHF/CANONICAL  

 Number of N-1 electron functions:              14
 Number of N-2 electron functions:             105
 Number of singly external CSFs:              1738
 Number of doubly external CSFs:           2589437
 Total number of CSFs:                     2591176

 Length of J-op  integral file:               0.00 MB
 Length of K-op  integral file:               2.28 MB

 Integral transformation finished. Total CPU:   4.16 sec, npass=  1  Memory used:   3.68 MW

 Reference energy:                   -209.89128796

                        CORR.ENERGY   TOTAL ENERGY   ENERGY CHANGE
 MP2:                   -0.89952731  -210.79081527    -0.89952731

 SCS-MP2 correlation energy:           -0.89164041   (PS=  1.200000  PT=  0.333333)
 SCS-MP2 total energy:               -210.78292837
 Iteration:   1     0.2938D+00
 Iteration:   2     0.5044D+00
 Iteration:   3     0.8655D-01
 Iteration:   4     0.1177D+00
 Iteration:   5     0.3637D-01
 Iteration:   6     0.3180D-01
 Iteration:   7     0.2424D-01
 Iteration:   8     0.1228D-01
 Iteration:   9     0.2105D-01
 Iteration:  10     0.5285D-02
 Iteration:  11     0.8826D-01
 Iteration:  12     0.2337D-02
 Iteration:  13     0.3657D-02
 Iteration:  14     0.1137D-02
 Iteration:  15     0.5841D-03
 Iteration:  16     0.1525D-02
 Iteration:  17     0.1435D-03
 Iteration:  18     0.3079D-03
 Iteration:  19     0.6909D-04
 PAPT operator written to  7000.1
 PAPT orbitals and eigenvalues written to  7000.2

 MP3(D):                -0.91848980  -210.80977775    -0.01896249



 RESULTS
 =======

  Reference energy                   -209.891287956992
  MP3 singlet pair energy              -0.623585496613
  MP3 triplet pair energy              -0.294904300643
  MP3 correlation energy               -0.918489797256

 !MP3 total energy                   -210.809777754248

 Timing summary (sec):

 STEP                 CPU(USER)    SYS     CPU(TOT)    WALL
 Transformation          4.34      0.38      4.72      4.87
 CCSD iterations        77.39      0.45     77.84     19.48

 Program statistics:

 Available memory in ccsd:               805305569
 Min. memory needed in ccsd:               6553174
 Max. memory used in ccsd:                 8893441
 Max. memory used in cckext:               9043131 ( 1 integral passes)



 **********************************************************************************************************************************
 DATASETS  * FILE   NREC   LENGTH (MB)   RECORD NAMES
              1      21      851.05       500      610      700      900      950      970     1000      129      960     1100   
                                          VAR    BASINP    GEOM    SYMINP    ZMAT    AOBASIS   BASIS     P2S    ABASIS      S 
                                         1400     1410     1200     1210     1080     1600     1650     1300     1700     1380   
                                           T        V       H0       H01     AOSYM     SMH    MOLCAS    ERIS     OPER     JKOP   
                                         7000   
                                        PAPT AO    

              2       5        1.94       700     1000      520     2100     7000   
                                         GEOM     BASIS   MCVARS     RHF     PAPT   

 PROGRAMS   *        TOTAL      PAPT    HF-SCF       INT
 CPU TIMES  *        81.55     23.11     25.65     32.66
 REAL TIME  *        91.38 SEC
 DISK USED  *         3.25 GB
 **********************************************************************************************************************************


 PROGRAM * MP4 (Closed-shell)     Authors: C. Hampel, H.-J. Werner, 1991, M. Deegan, P.J. Knowles, 1992


 Convergence thresholds:  THRVAR = 1.00D-08  THRDEN = 1.00D-06

 MP4(T)     terms to be evaluated (factor= 0.000)


 Number of core orbitals:           5 (   5   0 )
 Number of closed-shell orbitals:  14 (  10   4 )
 Number of external orbitals:     229 ( 137  92 )

 Molecular orbitals read from record     7000.2  Type=PAPT/CANONICAL (state 1.1)

 Number of N-1 electron functions:              14
 Number of N-2 electron functions:             105
 Number of singly external CSFs:              1738
 Number of doubly external CSFs:           2589437
 Total number of CSFs:                     2591176

 Length of J-op  integral file:               0.00 MB
 Length of K-op  integral file:               2.28 MB

 Memory could be reduced to 103.71 Mwords without degradation in triples

 Integral transformation finished. Total CPU:  13.56 sec, npass=  1  Memory used:  39.87 MW
 Orbital energies read from record       7000.2  Type=PAPT/CANONICAL (state 1.1)

 Reference energy:                   -209.89128796

                        CORR.ENERGY   TOTAL ENERGY   ENERGY CHANGE
 MP2:                   -0.92859242  -210.81988037    -0.92859242

 SCS-MP2 correlation energy:           -0.92609591   (PS=  1.200000  PT=  0.333333)
 SCS-MP2 total energy:               -210.81738386

 MP3(D):                -0.92891495  -210.82020291    -0.00032254
 MP4(DQ):               -0.91315552  -210.80444347     0.01575944
 MP4(SDQ):              -0.92245696  -210.81374492    -0.00930145

 Norm of t1 vector:      0.09518686      S-energy:    -0.00930145      T1 diagnostic:  0.01271988

 Largest off-diagonal element in interal  block of Fock matrix:  0.12D+00
 Largest off-diagonal element in external block of Fock matrix:  0.27D+00


 Total CPU time for triples:    303.60 sec


 RESULTS
 =======

  Reference energy                   -209.891287956992
  MP4(SDQ) singlet pair energy         -0.620486116364
  MP4(SDQ) triplet pair energy         -0.292669400245
  MP4(SDQ) correlation energy          -0.922456964137

  Triples contribution                 -0.055796916034
  Total correlation energy             -0.978253880171

  MP4(SDQ) total energy              -210.813744921130
 !MP4(SDTQ) total energy             -210.869541837163

 Timing summary (sec):

 STEP                 CPU(USER)    SYS     CPU(TOT)    WALL
 Transformation         15.71      1.43     17.14     17.87
 CCSD iterations        97.27      0.45     97.72     16.32
 Triples               303.60      9.66    313.26    315.47

 Program statistics:

 Available memory in ccsd:               805305569
 Min. memory needed in ccsd:               6553174
 Max. memory used in ccsd:                 8893441
 Max. memory used in cckext:               9043131 ( 1 integral passes)



 **********************************************************************************************************************************
 DATASETS  * FILE   NREC   LENGTH (MB)   RECORD NAMES
              1      22     1174.28       500      610      700      900      950      970     1000      129      960     1100   
                                          VAR    BASINP    GEOM    SYMINP    ZMAT    AOBASIS   BASIS     P2S    ABASIS      S 
                                         1400     1410     1200     1210     1080     1600     1650     1300     1700     1380   
                                           T        V       H0       H01     AOSYM     SMH    MOLCAS    ERIS     OPER     JKOP   
                                         7000     1380(1)
                                        PAPT AO   JKOP   

              2       5        1.94       700     1000      520     2100     7000   
                                         GEOM     BASIS   MCVARS     RHF     PAPT   

 PROGRAMS   *        TOTAL       MP4      PAPT    HF-SCF       INT
 CPU TIMES  *       416.40    334.85     23.11     25.65     32.66
 REAL TIME  *       441.08 SEC
 DISK USED  *         3.25 GB
 **********************************************************************************************************************************

 Dump information in style XML to xml output                                                                      

 Orbitals will not be exported.

 **********************************************************************************************************************************

 MP4/cc-pVTZ energy=   -210.869541837163

             MP4            PAPT          HF-SCF
   -210.86954184   -210.80977775   -209.89128796
 **********************************************************************************************************************************
 Molpro calculation terminated
