
 Working directory              : /home/jovyan/scratch/molpro.Xe15CBmuTK/
 Global scratch directory       : /home/jovyan/scratch/molpro.Xe15CBmuTK/
 Wavefunction directory         : /home/jovyan/wfu/
 Main file repository           : /home/jovyan/scratch/molpro.Xe15CBmuTK/

 id        : cardiff

 Nodes                nprocs
 jupyter-c-2efrancisan    1
 GA implementation: MPI file
 GA implementation (serial work in mppx): MPI file

 Using customized tuning parameters: mindgm=1; mindgv=20; mindgc=4; mindgr=1; noblas=0; minvec=7
 default implementation of scratch files=df  


 Variables initialized (1031), CPU time= 0.01 sec
 
 
 
 geometry={
 4
  2HF-TS (Full point group D2h)
  H 0.000000 0.588109 0.000000
  H 0.000000 -0.588109 0.000000
  F 0.000000 0.000000 1.037653
  F 0.000000 0.000000 -1.037653
 }
 basis=cc-pVTZ
 angstrom
 
 
 hf
 
 
 
 {put,xml;noorbitals,nobasis}
 Commands initialized (841), CPU time= 0.00 sec, 704 directives.
 Default parameters read. Elapsed time= 0.09 sec

 Checking input...
 Passed
1


                                         ***  PROGRAM SYSTEM MOLPRO  ***
                                       Copyright, TTI GmbH Stuttgart, 2015
                                    Version 2023.1 linked Mon Jun  5 13:27:10 2023


 **********************************************************************************************************************************
 LABEL *                                                                                                                                                                 
  (16 PROC) 64 bit serial version                                                        DATE: 03-Aug-23          TIME: 12:33:22  
 **********************************************************************************************************************************

 SHA1:             9738a14712571edd23541b6d7c4f3a3d766f8287
 **********************************************************************************************************************************

 Memory per process:       805 MW
 Total memory per node:   1074 MW
 Total GA space:           268 MW

 GA preallocation disabled
 GA check enabled

 Geometry recognized as XYZ


 Variable memory set to 805.3 MW

 SETTING BASIS          =    CC-PVTZ


 Recomputing integrals since basis changed


 Using spherical harmonics

 Library entry H      S cc-pVTZ              selected for orbital group  1
 Library entry H      P cc-pVTZ              selected for orbital group  1
 Library entry H      D cc-pVTZ              selected for orbital group  1
 Library entry F      S cc-pVTZ              selected for orbital group  2
 Library entry F      P cc-pVTZ              selected for orbital group  2
 Library entry F      D cc-pVTZ              selected for orbital group  2
 Library entry F      F cc-pVTZ              selected for orbital group  2


 PROGRAM * SEWARD (Integral evaluation for generally contracted gaussian basis sets)     Author: Roland Lindh, 1990

 Geometry written to block  1 of record 700


 Point group  D2h 



 ATOMIC COORDINATES

 NR  ATOM    CHARGE       X              Y              Z

   1  H       1.00    0.000000000    1.111364941    0.000000000
   2  H       1.00    0.000000000   -1.111364941    0.000000000
   3  F       9.00    0.000000000    0.000000000    1.960879982
   4  F       9.00    0.000000000    0.000000000   -1.960879982

 Bond lengths in Bohr (Angstrom)

 1-3  2.253925983  1-4  2.253925983  2-3  2.253925983  2-4  2.253925983
     ( 1.192726265)     ( 1.192726265)     ( 1.192726265)     ( 1.192726265)

 Bond angles

  1-3-2   59.08639416   1-4-2   59.08639416   3-1-4  120.91360584   3-2-4  120.91360584

 NUCLEAR CHARGE:                   20
 NUMBER OF PRIMITIVE AOS:         128
 NUMBER OF SYMMETRY AOS:          116
 NUMBER OF CONTRACTIONS:           88   (   20Ag  +   10B3u +   14B2u +    6B1g +   16B1u +    8B2g +   10B3g +    4Au  )
 NUMBER OF INNER CORE ORBITALS:     0   (    0Ag  +    0B3u +    0B2u +    0B1g +    0B1u +    0B2g +    0B3g +    0Au  )
 NUMBER OF OUTER CORE ORBITALS:     2   (    1Ag  +    0B3u +    0B2u +    0B1g +    1B1u +    0B2g +    0B3g +    0Au  )
 NUMBER OF VALENCE ORBITALS:       10   (    3Ag  +    1B3u +    2B2u +    0B1g +    2B1u +    1B2g +    1B3g +    0Au  )


 NUCLEAR REPULSION ENERGY   37.07602002

 Eigenvalues of metric

         1 0.394E-02 0.965E-02 0.334E-01 0.576E-01 0.121E+00 0.250E+00 0.323E+00 0.385E+00
         2 0.533E-01 0.148E+00 0.411E+00 0.499E+00 0.875E+00 0.995E+00 0.118E+01 0.130E+01
         3 0.367E-02 0.409E-01 0.449E-01 0.702E-01 0.104E+00 0.296E+00 0.431E+00 0.631E+00
         4 0.205E+00 0.482E+00 0.622E+00 0.100E+01 0.127E+01 0.169E+01
         5 0.611E-02 0.194E-01 0.542E-01 0.176E+00 0.271E+00 0.387E+00 0.459E+00 0.647E+00
         6 0.520E-01 0.276E+00 0.393E+00 0.754E+00 0.100E+01 0.109E+01 0.171E+01 0.263E+01
         7 0.277E-01 0.583E-01 0.251E+00 0.298E+00 0.582E+00 0.955E+00 0.105E+01 0.111E+01
         8 0.378E+00 0.736E+00 0.115E+01 0.167E+01


 Contracted 2-electron integrals neglected if value below      1.0D-11
 AO integral compression algorithm  1   Integral accuracy      1.0D-11

     7.602 MB (compressed) written to integral file ( 57.2%)


 NUMBER OF SORTED TWO-ELECTRON INTEGRALS:    1027438.     BUFFER LENGTH:  32768
 NUMBER OF SEGMENTS:   1  SEGMENT LENGTH:    1027438      RECORD LENGTH: 524288

 Memory used in sort:       1.58 MW

 SORT1 READ     1605716. AND WROTE      988834. INTEGRALS IN      3 RECORDS. CPU TIME:     0.06 SEC, REAL TIME:     0.08 SEC
 SORT2 READ      988834. AND WROTE     1027438. INTEGRALS IN     29 RECORDS. CPU TIME:     0.10 SEC, REAL TIME:     0.10 SEC

 FILE SIZES:   FILE 1:    37.8 MBYTE,  FILE 4:    12.6 MBYTE,   TOTAL:     50.5 MBYTE

 OPERATOR DM      FOR CENTER  0  COORDINATES:    0.000000    0.000000    0.000000


 **********************************************************************************************************************************
 DATASETS  * FILE   NREC   LENGTH (MB)   RECORD NAMES
              1      19       33.45       500      610      700      900      950      970     1000      129      960     1100   
                                          VAR    BASINP    GEOM    SYMINP    ZMAT    AOBASIS   BASIS     P2S    ABASIS      S 
                                         1400     1410     1200     1210     1080     1600     1650     1300     1700   
                                           T        V       H0       H01     AOSYM     SMH    MOLCAS    ERIS     OPER   

 PROGRAMS   *        TOTAL       INT
 CPU TIMES  *         0.93      0.80
 REAL TIME  *         2.10 SEC
 DISK USED  *        48.53 MB
 **********************************************************************************************************************************


 Program * Restricted Hartree-Fock

 Orbital guess generated from atomic densities. Full valence occupancy:    4   1   2   0   3   1   1   0


 Initial occupancy:   3   1   1   0   3   1   1   0

 NELEC=   20   SYM=1   MS2= 0   THRE=1.0D-08   THRD=3.2D-06   THRG=3.2D-06  HFMA2=F  DIIS_START=2   DIIS_MAX=10   DIIS_INCORE=F

 Level shifts:    0.00 (CLOSED)    0.00 (OPEN)    0.30 (GAP_MIN)

 ITER           ETOT              DE          GRAD        DDIFF     DIIS  NEXP   TIME(IT)  TIME(TOT)  DIAG
   1     -199.98897089    -199.98897089     0.00D+00     0.24D+00     0     0       0.00      0.01    start
   2     -200.02160087      -0.03262998     0.22D-01     0.25D-01     1     0       0.01      0.02    diag
   3     -200.03008271      -0.00848184     0.12D-01     0.88D-02     2     0       0.00      0.02    diag
   4     -200.03021757      -0.00013486     0.11D-02     0.94D-03     3     0       0.01      0.03    diag
   5     -200.03023381      -0.00001623     0.30D-03     0.37D-03     4     0       0.00      0.03    diag
   6     -200.03023520      -0.00000140     0.71D-04     0.14D-03     5     0       0.00      0.03    diag
   7     -200.03023524      -0.00000003     0.12D-04     0.24D-04     6     0       0.01      0.04    diag
   8     -200.03023524      -0.00000000     0.87D-06     0.13D-05     7     0       0.00      0.04    fixocc
   9     -200.03023524      -0.00000000     0.11D-06     0.11D-06     0     0       0.01      0.05    diag

 Final occupancy:   3   1   1   0   3   1   1   0

 !RHF STATE 1.1 Energy               -200.030235237154
  RHF One-electron energy            -354.210917720245
  RHF Two-electron energy             117.104662465138
  RHF Kinetic energy                  199.861971617002
  RHF Nuclear energy                   37.076020017953
  RHF Virial quotient                  -1.000841899131

 !RHF STATE 1.1 Dipole moment           0.00000000     0.00000000     0.00000000
 Dipole moment /Debye                   0.00000000     0.00000000     0.00000000

 Orbital energies:

           1.1          2.1          3.1          4.1          5.1
    -26.307396    -1.648819    -0.850081     0.159214     0.526263

           1.2          2.2          3.2
     -0.687481     0.726525     1.016886

           1.3          2.3          3.3
     -0.746444     0.202014     0.442345

           1.4          2.4
      0.896982     2.475757

           1.5          2.5          3.5          4.5          5.5
    -26.307444    -1.559045    -0.607639     0.817289     1.331814

           1.6          2.6          3.6
     -0.645849     1.002959     2.213268

           1.7          2.7          3.7
     -0.640598     0.926061     1.358699

           1.8          2.8
      2.157764     3.974158


 HOMO      3.5    -0.607639 =     -16.5347eV
 LUMO      4.1     0.159214 =       4.3324eV
 LUMO-HOMO         0.766853 =      20.8671eV

 Orbitals saved in record  2100.2


 **********************************************************************************************************************************
 DATASETS  * FILE   NREC   LENGTH (MB)   RECORD NAMES
              1      19       33.45       500      610      700      900      950      970     1000      129      960     1100   
                                          VAR    BASINP    GEOM    SYMINP    ZMAT    AOBASIS   BASIS     P2S    ABASIS      S 
                                         1400     1410     1200     1210     1080     1600     1650     1300     1700   
                                           T        V       H0       H01     AOSYM     SMH    MOLCAS    ERIS     OPER   

              2       4        0.46       700     1000      520     2100   
                                         GEOM     BASIS   MCVARS     RHF  

 PROGRAMS   *        TOTAL    HF-SCF       INT
 CPU TIMES  *         0.98      0.06      0.80
 REAL TIME  *         2.18 SEC
 DISK USED  *        48.53 MB
 **********************************************************************************************************************************

 Dump information in style XML to xml output                                                                      

 Orbitals will not be exported.

 **********************************************************************************************************************************

 HF/cc-pVTZ energy=   -200.030235237154

          HF-SCF
   -200.03023524
 **********************************************************************************************************************************
 Molpro calculation terminated
