
 Working directory              : /home/jovyan/scratch/molpro.guBwRagfJF/
 Global scratch directory       : /home/jovyan/scratch/molpro.guBwRagfJF/
 Wavefunction directory         : /home/jovyan/wfu/
 Main file repository           : /home/jovyan/scratch/molpro.guBwRagfJF/

 id        : cardiff

 Nodes                nprocs
 jupyter-c-2efrancisan    1
 GA implementation: MPI file
 GA implementation (serial work in mppx): MPI file

 Using customized tuning parameters: mindgm=1; mindgv=20; mindgc=4; mindgr=1; noblas=0; minvec=7
 default implementation of scratch files=df  


 Variables initialized (1031), CPU time= 0.01 sec
 
 
 
 geometry={
 4
  O     0.7209435    0.0000000    0.4642736
  O    -0.7209435    0.0000000    0.4642736
  H     0.9743565    0.0000000   -0.4642670
  H    -0.9743565    0.0000000   -0.4642670
 }
 basis=cc-pVDZ
 angstrom
 
 
 hf; ccsd(t)
 
 
 
 {put,xml;noorbitals,nobasis}
 Commands initialized (841), CPU time= 0.00 sec, 704 directives.
 Default parameters read. Elapsed time= 0.08 sec

 Checking input...
 Passed
1


                                         ***  PROGRAM SYSTEM MOLPRO  ***
                                       Copyright, TTI GmbH Stuttgart, 2015
                                    Version 2023.1 linked Mon Jun  5 13:27:10 2023


 **********************************************************************************************************************************
 LABEL *                                                                                                                                                                 
  (16 PROC) 64 bit serial version                                                        DATE: 04-Aug-23          TIME: 08:32:56  
 **********************************************************************************************************************************

 SHA1:             9738a14712571edd23541b6d7c4f3a3d766f8287
 **********************************************************************************************************************************

 Memory per process:       805 MW
 Total memory per node:   1074 MW
 Total GA space:           268 MW

 GA preallocation disabled
 GA check enabled

 Geometry recognized as XYZ


 Variable memory set to 805.3 MW

 SETTING BASIS          =    CC-PVDZ


 Recomputing integrals since basis changed


 Using spherical harmonics

 Library entry O      S cc-pVDZ              selected for orbital group  1
 Library entry O      P cc-pVDZ              selected for orbital group  1
 Library entry O      D cc-pVDZ              selected for orbital group  1
 Library entry H      S cc-pVDZ              selected for orbital group  2
 Library entry H      P cc-pVDZ              selected for orbital group  2


 PROGRAM * SEWARD (Integral evaluation for generally contracted gaussian basis sets)     Author: Roland Lindh, 1990

 Geometry written to block  1 of record 700


 Point group  C2v 



 ATOMIC COORDINATES

 NR  ATOM    CHARGE       X              Y              Z

   1  O       8.00    1.362385766    0.000000000    0.877349951
   2  O       8.00   -1.362385766    0.000000000    0.877349951
   3  H       1.00    1.841266933    0.000000000   -0.877337479
   4  H       1.00   -1.841266933    0.000000000   -0.877337479

 Bond lengths in Bohr (Angstrom)

 1-2  2.724771533  1-3  1.818860948  2-4  1.818860948
     ( 1.441887000)     ( 0.962499763)     ( 0.962499763)

 Bond angles

  1-2-4  105.26514921   2-1-3  105.26514921

 NUCLEAR CHARGE:                   18
 NUMBER OF PRIMITIVE AOS:          68
 NUMBER OF SYMMETRY AOS:           66
 NUMBER OF CONTRACTIONS:           38   (   14A1  +   14B1  +    5B2  +    5A2  )
 NUMBER OF INNER CORE ORBITALS:     0   (    0A1  +    0B1  +    0B2  +    0A2  )
 NUMBER OF OUTER CORE ORBITALS:     2   (    1A1  +    1B1  +    0B2  +    0A2  )
 NUMBER OF VALENCE ORBITALS:       10   (    4A1  +    4B1  +    1B2  +    1A2  )


 NUCLEAR REPULSION ENERGY   36.93677898

 Eigenvalues of metric

         1 0.268E-01 0.518E-01 0.156E+00 0.174E+00 0.220E+00 0.595E+00 0.991E+00 0.103E+01
         2 0.118E-01 0.406E-01 0.741E-01 0.144E+00 0.169E+00 0.429E+00 0.580E+00 0.875E+00
         3 0.205E+00 0.584E+00 0.107E+01 0.125E+01 0.251E+01
         4 0.154E+00 0.555E+00 0.869E+00 0.110E+01 0.171E+01


 Contracted 2-electron integrals neglected if value below      1.0D-11
 AO integral compression algorithm  1   Integral accuracy      1.0D-11

     0.786 MB (compressed) written to integral file ( 57.0%)


 NUMBER OF SORTED TWO-ELECTRON INTEGRALS:      78720.     BUFFER LENGTH:  32768
 NUMBER OF SEGMENTS:   1  SEGMENT LENGTH:      78720      RECORD LENGTH: 524288

 Memory used in sort:       0.64 MW

 SORT1 READ      129016. AND WROTE       67326. INTEGRALS IN      1 RECORDS. CPU TIME:     0.00 SEC, REAL TIME:     0.01 SEC
 SORT2 READ       67326. AND WROTE       78720. INTEGRALS IN      3 RECORDS. CPU TIME:     0.01 SEC, REAL TIME:     0.02 SEC

 FILE SIZES:   FILE 1:    30.9 MBYTE,  FILE 4:     4.3 MBYTE,   TOTAL:     35.1 MBYTE

 OPERATOR DM      FOR CENTER  0  COORDINATES:    0.000000    0.000000    0.000000


 **********************************************************************************************************************************
 DATASETS  * FILE   NREC   LENGTH (MB)   RECORD NAMES
              1      19       29.02       500      610      700      900      950      970     1000      129      960     1100   
                                          VAR    BASINP    GEOM    SYMINP    ZMAT    AOBASIS   BASIS     P2S    ABASIS      S 
                                         1400     1410     1200     1210     1080     1600     1650     1300     1700   
                                           T        V       H0       H01     AOSYM     SMH    MOLCAS    ERIS     OPER   

 PROGRAMS   *        TOTAL       INT
 CPU TIMES  *         0.54      0.41
 REAL TIME  *         1.53 SEC
 DISK USED  *        33.86 MB
 **********************************************************************************************************************************


 Program * Restricted Hartree-Fock

 Orbital guess generated from atomic densities. Full valence occupancy:    5   5   1   1

 Initial occupancy:   4   3   1   1

 NELEC=   18   SYM=1   MS2= 0   THRE=1.0D-08   THRD=3.2D-06   THRG=3.2D-06  HFMA2=F  DIIS_START=2   DIIS_MAX=10   DIIS_INCORE=F

 Level shifts:    0.00 (CLOSED)    0.00 (OPEN)    0.30 (GAP_MIN)

 ITER           ETOT              DE          GRAD        DDIFF     DIIS  NEXP   TIME(IT)  TIME(TOT)  DIAG
   1     -150.73960841    -150.73960841     0.00D+00     0.37D+00     0     0       0.00      0.00    start
   2     -150.77085288      -0.03124447     0.21D-01     0.43D-01     1     0       0.00      0.00    diag
   3     -150.77222833      -0.00137545     0.48D-02     0.66D-02     2     0       0.01      0.01    diag
   4     -150.77237903      -0.00015070     0.13D-02     0.28D-02     3     0       0.00      0.01    diag
   5     -150.77239802      -0.00001900     0.47D-03     0.84D-03     4     0       0.00      0.01    diag
   6     -150.77239889      -0.00000087     0.72D-04     0.18D-03     5     0       0.00      0.01    diag
   7     -150.77239890      -0.00000001     0.87D-05     0.26D-04     6     0       0.00      0.01    diag
   8     -150.77239891      -0.00000000     0.14D-05     0.41D-05     7     0       0.00      0.01    fixocc
   9     -150.77239891      -0.00000000     0.47D-06     0.15D-05     8     0       0.00      0.01    diag
  10     -150.77239891      -0.00000000     0.13D-06     0.23D-06     0     0       0.00      0.01    diag/orth

 Final occupancy:   4   3   1   1

 !RHF STATE 1.1 Energy               -150.772398905145
  RHF One-electron energy            -281.544873262689
  RHF Two-electron energy              93.835695374650
  RHF Kinetic energy                  150.683480439553
  RHF Nuclear energy                   36.936778982895
  RHF Virial quotient                  -1.000590100954

 !RHF STATE 1.1 Dipole moment           0.00000000     0.00000000    -1.34168335
 Dipole moment /Debye                   0.00000000     0.00000000    -3.41021892

 Orbital energies:

           1.1          2.1          3.1          4.1          5.1          6.1
    -20.624975    -1.473734    -0.763373    -0.591208     0.157679     0.786978

           1.2          2.2          3.2          4.2          5.2
    -20.624688    -1.211496    -0.573088     0.193094     0.331393

           1.3          2.3          3.3
     -0.622930     1.145630     1.491223

           1.4          2.4          3.4
     -0.451250     1.250411     1.590678


 HOMO      1.4    -0.451250 =     -12.2791eV
 LUMO      5.1     0.157679 =       4.2907eV
 LUMO-HOMO         0.608929 =      16.5698eV

 Orbitals saved in record  2100.2


 **********************************************************************************************************************************
 DATASETS  * FILE   NREC   LENGTH (MB)   RECORD NAMES
              1      19       29.02       500      610      700      900      950      970     1000      129      960     1100   
                                          VAR    BASINP    GEOM    SYMINP    ZMAT    AOBASIS   BASIS     P2S    ABASIS      S 
                                         1400     1410     1200     1210     1080     1600     1650     1300     1700   
                                           T        V       H0       H01     AOSYM     SMH    MOLCAS    ERIS     OPER   

              2       4        0.44       700     1000      520     2100   
                                         GEOM     BASIS   MCVARS     RHF  

 PROGRAMS   *        TOTAL    HF-SCF       INT
 CPU TIMES  *         0.56      0.02      0.41
 REAL TIME  *         1.56 SEC
 DISK USED  *        33.86 MB
 **********************************************************************************************************************************


 PROGRAM * CCSD (Closed-shell coupled cluster)     Authors: C. Hampel, H.-J. Werner, 1991, M. Deegan, P.J. Knowles, 1992


 Convergence thresholds:  THRVAR = 1.00D-08  THRDEN = 1.00D-06

 CCSD(T)     terms to be evaluated (factor= 1.000)


 Number of core orbitals:           2 (   1   1   0   0 )
 Number of closed-shell orbitals:   7 (   3   2   1   1 )
 Number of external orbitals:      29 (  10  11   4   4 )

 Molecular orbitals read from record     2100.2  Type=RHF/CANONICAL  

 Number of N-1 electron functions:               7
 Number of N-2 electron functions:              28
 Number of singly external CSFs:                60
 Number of doubly external CSFs:              5443
 Total number of CSFs:                        5504

 Length of J-op  integral file:               0.00 MB
 Length of K-op  integral file:               0.09 MB
 Length of 3-ext integral record:             0.00 MB

 Memory could be reduced to 0.13 Mwords without degradation in triples

 Integral transformation finished. Total CPU:   0.00 sec, npass=  1  Memory used:   0.10 MW

 Reference energy:                   -150.77239891

 MP2 singlet pair energy:              -0.23761349
 MP2 triplet pair energy:              -0.14709194
 MP2 correlation energy:               -0.38470543
 MP2 total energy:                   -151.15710433

 SCS-MP2 correlation energy:           -0.37666006   (PS=  1.200000  PT=  0.333333)
 SCS-MP2 total energy:               -151.14905896

 ITER.      SQ.NORM     CORR.ENERGY   TOTAL ENERGY   ENERGY CHANGE        DEN1      VAR(S)    VAR(P)  DIIS     TIME  TIME/IT
   1      1.10488114    -0.39697574  -151.16937464    -0.01227031    -0.00295143  0.11D-02  0.18D-02  1  1     0.83     0.01
   2      1.11311974    -0.39898958  -151.17138849    -0.00201385    -0.00913082  0.24D-04  0.26D-03  2  2     0.84     0.01
   3      1.11621544    -0.39916700  -151.17156590    -0.00017742    -0.00191901  0.12D-04  0.14D-04  3  3     0.85     0.01
   4      1.11721892    -0.39920731  -151.17160622    -0.00004031    -0.00043298  0.16D-05  0.14D-05  4  4     0.86     0.01
   5      1.11747377    -0.39920531  -151.17160421     0.00000201    -0.00006503  0.45D-06  0.18D-06  5  5     0.87     0.01
   6      1.11753449    -0.39920440  -151.17160331     0.00000090     0.00000020  0.53D-07  0.27D-07  6  6     0.88     0.01
   7      1.11755502    -0.39920448  -151.17160339    -0.00000008    -0.00000130  0.51D-08  0.38D-08  6  1     0.88     0.01

 Norm of t1 vector:      0.04901129      S-energy:    -0.00000043      T1 diagnostic:  0.00926226
                                                                       D1 diagnostic:  0.02156390
                                                                       D2 diagnostic:  0.17401787 (external, symmetry=2)

 Doubles amplitudes (print threshold =  0.500E-01):

         I         J         SYM. A    SYM. B    A         B      T(IJ, AB)

         3         3         2         2         2         2     -0.06835824


 Total CPU time for triples:      0.03 sec


 RESULTS
 =======

  Reference energy                   -150.772398905144
  CCSD singlet pair energy             -0.271185467292
  CCSD triplet pair energy             -0.128018578104
  CCSD correlation energy              -0.399204480044

  Triples (T) contribution             -0.009053639550
  Total correlation energy             -0.408258119593

  CCSD total energy                  -151.171603385188
  CCSD[T] energy                     -151.180976118968
  CCSD-T energy                      -151.180529238334
 !CCSD(T) total energy               -151.180657024738

 Timing summary (sec):

 STEP                 CPU(USER)    SYS     CPU(TOT)    WALL
 CCSD iterations         0.90      0.00      0.90      0.10
 Triples                 0.03      0.01      0.04      0.04

 Program statistics:

 Available memory in ccsd:               805306168
 Min. memory needed in ccsd:                 22403
 Max. memory used in ccsd:                   25920
 Max. memory used in cckext:                 60233 ( 7 integral passes)



 **********************************************************************************************************************************
 DATASETS  * FILE   NREC   LENGTH (MB)   RECORD NAMES
              1      20       29.33       500      610      700      900      950      970     1000      129      960     1100   
                                          VAR    BASINP    GEOM    SYMINP    ZMAT    AOBASIS   BASIS     P2S    ABASIS      S 
                                         1400     1410     1200     1210     1080     1600     1650     1300     1700     1380   
                                           T        V       H0       H01     AOSYM     SMH    MOLCAS    ERIS     OPER     JKOP   

              2       4        0.44       700     1000      520     2100   
                                         GEOM     BASIS   MCVARS     RHF  

 PROGRAMS   *        TOTAL   CCSD(T)    HF-SCF       INT
 CPU TIMES  *         0.70      0.14      0.02      0.41
 REAL TIME  *         1.80 SEC
 DISK USED  *        33.86 MB
 **********************************************************************************************************************************

 Dump information in style XML to xml output                                                                      

 Orbitals will not be exported.

 **********************************************************************************************************************************

 CCSD(T)/cc-pVDZ energy=   -151.180657024738

         CCSD(T)          HF-SCF
   -151.18065702   -150.77239891
 **********************************************************************************************************************************
 Molpro calculation terminated
