
 Working directory              : /home/jovyan/scratch/molpro.5YvBFZVGHC/
 Global scratch directory       : /home/jovyan/scratch/molpro.5YvBFZVGHC/
 Wavefunction directory         : /home/jovyan/wfu/
 Main file repository           : /home/jovyan/scratch/molpro.5YvBFZVGHC/

 id        : cardiff

 Nodes                nprocs
 jupyter-c-2efrancisan    1
 GA implementation: MPI file
 GA implementation (serial work in mppx): MPI file

 Using customized tuning parameters: mindgm=1; mindgv=20; mindgc=4; mindgr=1; noblas=0; minvec=7
 default implementation of scratch files=df  


 Variables initialized (1031), CPU time= 0.01 sec
 
 
 
 geometry={
 3
    O   -0.02085472758024      0.00000000000000     -0.01495598121153
    H   0.01876805202920      0.00000000000000      0.94578209125484
    H   0.89775667555104      0.00000000000000     -0.29748911004330
 }
 basis=cc-pVTZ
 angstrom
 
 
 hf; ccsd
 
 
 
 {put,xml;noorbitals,nobasis}
 Commands initialized (841), CPU time= 0.01 sec, 704 directives.
 Default parameters read. Elapsed time= 0.10 sec

 Checking input...
 Passed
1


                                         ***  PROGRAM SYSTEM MOLPRO  ***
                                       Copyright, TTI GmbH Stuttgart, 2015
                                    Version 2023.1 linked Mon Jun  5 13:27:10 2023


 **********************************************************************************************************************************
 LABEL *                                                                                                                                                                 
  (16 PROC) 64 bit serial version                                                        DATE: 02-Aug-23          TIME: 15:41:37  
 **********************************************************************************************************************************

 SHA1:             9738a14712571edd23541b6d7c4f3a3d766f8287
 **********************************************************************************************************************************

 Memory per process:       805 MW
 Total memory per node:   1074 MW
 Total GA space:           268 MW

 GA preallocation disabled
 GA check enabled

 Geometry recognized as XYZ


 Variable memory set to 805.3 MW

 SETTING BASIS          =    CC-PVTZ


 Recomputing integrals since basis changed


 Using spherical harmonics

 Library entry O      S cc-pVTZ              selected for orbital group  1
 Library entry O      P cc-pVTZ              selected for orbital group  1
 Library entry O      D cc-pVTZ              selected for orbital group  1
 Library entry O      F cc-pVTZ              selected for orbital group  1
 Library entry H      S cc-pVTZ              selected for orbital group  2
 Library entry H      P cc-pVTZ              selected for orbital group  2
 Library entry H      D cc-pVTZ              selected for orbital group  2


 PROGRAM * SEWARD (Integral evaluation for generally contracted gaussian basis sets)     Author: Roland Lindh, 1990

 Geometry written to block  1 of record 700


 Point group  Cs  



 ATOMIC COORDINATES

 NR  ATOM    CHARGE       X              Y              Z

   1  O       8.00   -0.039409724    0.000000000   -0.028262708
   2  H       1.00    0.035466478    0.000000000    1.787269126
   3  H       1.00    1.696514243    0.000000000   -0.562172943

 Bond lengths in Bohr (Angstrom)

 1-2  1.817075201  1-3  1.816175145
     ( 0.961554787)     ( 0.961078498)

 Bond angles

  2-1-3  104.73443354

 NUCLEAR CHARGE:                   10
 NUMBER OF PRIMITIVE AOS:          81
 NUMBER OF SYMMETRY AOS:           74
 NUMBER OF CONTRACTIONS:           58   (   40A'  +   18A"  )
 NUMBER OF INNER CORE ORBITALS:     0   (    0A'  +    0A"  )
 NUMBER OF OUTER CORE ORBITALS:     1   (    1A'  +    0A"  )
 NUMBER OF VALENCE ORBITALS:        6   (    5A'  +    1A"  )


 NUCLEAR REPULSION ENERGY    9.15508706

 Eigenvalues of metric

         1 0.259E-02 0.476E-02 0.586E-02 0.773E-02 0.109E-01 0.419E-01 0.480E-01 0.697E-01
         2 0.404E-01 0.109E+00 0.116E+00 0.247E+00 0.318E+00 0.448E+00 0.523E+00 0.542E+00


 Contracted 2-electron integrals neglected if value below      1.0D-11
 AO integral compression algorithm  1   Integral accuracy      1.0D-11

     4.456 MB (compressed) written to integral file ( 61.8%)


 NUMBER OF SORTED TWO-ELECTRON INTEGRALS:     771976.     BUFFER LENGTH:  32768
 NUMBER OF SEGMENTS:   1  SEGMENT LENGTH:     771976      RECORD LENGTH: 524288

 Memory used in sort:       1.33 MW

 SORT1 READ      946216. AND WROTE      721371. INTEGRALS IN      3 RECORDS. CPU TIME:     0.01 SEC, REAL TIME:     0.09 SEC
 SORT2 READ      721371. AND WROTE      771976. INTEGRALS IN     17 RECORDS. CPU TIME:     0.05 SEC, REAL TIME:     0.08 SEC

 FILE SIZES:   FILE 1:    34.6 MBYTE,  FILE 4:    12.6 MBYTE,   TOTAL:     47.2 MBYTE

 OPERATOR DM      FOR CENTER  0  COORDINATES:    0.000000    0.000000    0.000000


 **********************************************************************************************************************************
 DATASETS  * FILE   NREC   LENGTH (MB)   RECORD NAMES
              1      19       32.09       500      610      700      900      950      970     1000      129      960     1100   
                                          VAR    BASINP    GEOM    SYMINP    ZMAT    AOBASIS   BASIS     P2S    ABASIS      S 
                                         1400     1410     1200     1210     1080     1600     1650     1300     1700   
                                           T        V       H0       H01     AOSYM     SMH    MOLCAS    ERIS     OPER   

 PROGRAMS   *        TOTAL       INT
 CPU TIMES  *         0.66      0.53
 REAL TIME  *         2.29 SEC
 DISK USED  *        45.39 MB
 **********************************************************************************************************************************


 Program * Restricted Hartree-Fock

 Orbital guess generated from atomic densities. Full valence occupancy:    6   1

 Initial occupancy:   4   1

 NELEC=   10   SYM=1   MS2= 0   THRE=1.0D-08   THRD=3.2D-06   THRG=3.2D-06  HFMA2=F  DIIS_START=2   DIIS_MAX=10   DIIS_INCORE=F

 Level shifts:    0.00 (CLOSED)    0.00 (OPEN)    0.30 (GAP_MIN)

 ITER           ETOT              DE          GRAD        DDIFF     DIIS  NEXP   TIME(IT)  TIME(TOT)  DIAG
   1      -76.01879582     -76.01879582     0.00D+00     0.14D+00     0     0       0.01      0.02    start
   2      -76.04664886      -0.02785304     0.17D-01     0.24D-01     1     0       0.00      0.02    diag
   3      -76.05665522      -0.01000636     0.10D-01     0.79D-02     2     0       0.01      0.03    diag
   4      -76.05684524      -0.00019002     0.97D-03     0.12D-02     3     0       0.01      0.04    diag
   5      -76.05686515      -0.00001991     0.27D-03     0.40D-03     4     0       0.00      0.04    diag
   6      -76.05686620      -0.00000105     0.52D-04     0.90D-04     5     0       0.01      0.05    diag
   7      -76.05686623      -0.00000003     0.90D-05     0.18D-04     6     0       0.01      0.06    diag
   8      -76.05686623      -0.00000000     0.13D-05     0.27D-05     7     0       0.01      0.07    fixocc
   9      -76.05686623      -0.00000000     0.13D-06     0.22D-06     0     0       0.00      0.07    diag

 Final occupancy:   4   1

 !RHF STATE 1.1 Energy                -76.056866233115
  RHF One-electron energy            -123.049336747843
  RHF Two-electron energy              37.837383457985
  RHF Kinetic energy                   75.989266791399
  RHF Nuclear energy                    9.155087056744
  RHF Virial quotient                  -1.000889591972

 !RHF STATE 1.1 Dipole moment           0.65028469     0.00000000     0.46011916
 Dipole moment /Debye                   1.65285882     0.00000000     1.16950625

 Orbital energies:

           1.1          2.1          3.1          4.1          5.1          6.1
    -20.555347    -1.343391    -0.707974    -0.576503     0.141881     0.203633

           1.2          2.2          3.2
     -0.504069     0.787418     0.859791


 HOMO      1.2    -0.504069 =     -13.7164eV
 LUMO      5.1     0.141881 =       3.8608eV
 LUMO-HOMO         0.645950 =      17.5772eV

 Orbitals saved in record  2100.2


 **********************************************************************************************************************************
 DATASETS  * FILE   NREC   LENGTH (MB)   RECORD NAMES
              1      19       32.09       500      610      700      900      950      970     1000      129      960     1100   
                                          VAR    BASINP    GEOM    SYMINP    ZMAT    AOBASIS   BASIS     P2S    ABASIS      S 
                                         1400     1410     1200     1210     1080     1600     1650     1300     1700   
                                           T        V       H0       H01     AOSYM     SMH    MOLCAS    ERIS     OPER   

              2       4        0.44       700     1000      520     2100   
                                         GEOM     BASIS   MCVARS     RHF  

 PROGRAMS   *        TOTAL    HF-SCF       INT
 CPU TIMES  *         0.74      0.07      0.53
 REAL TIME  *         2.49 SEC
 DISK USED  *        45.39 MB
 **********************************************************************************************************************************


 PROGRAM * CCSD (Closed-shell coupled cluster)     Authors: C. Hampel, H.-J. Werner, 1991, M. Deegan, P.J. Knowles, 1992


 Convergence thresholds:  THRVAR = 1.00D-08  THRDEN = 1.00D-06

 Number of core orbitals:           1 (   1   0 )
 Number of closed-shell orbitals:   4 (   3   1 )
 Number of external orbitals:      53 (  36  17 )

 Molecular orbitals read from record     2100.2  Type=RHF/CANONICAL  

 Number of N-1 electron functions:               4
 Number of N-2 electron functions:              10
 Number of singly external CSFs:               125
 Number of doubly external CSFs:             11703
 Total number of CSFs:                       11829

 Length of J-op  integral file:               0.00 MB
 Length of K-op  integral file:               0.19 MB
 Length of 3-ext integral record:             0.00 MB

 Integral transformation finished. Total CPU:   0.02 sec, npass=  1  Memory used:   0.24 MW

 Reference energy:                    -76.05686623

 MP2 singlet pair energy:              -0.16639825
 MP2 triplet pair energy:              -0.09534100
 MP2 correlation energy:               -0.26173925
 MP2 total energy:                    -76.31860548

 SCS-MP2 correlation energy:           -0.25900119   (PS=  1.200000  PT=  0.333333)
 SCS-MP2 total energy:                -76.31586742

 ITER.      SQ.NORM     CORR.ENERGY   TOTAL ENERGY   ENERGY CHANGE        DEN1      VAR(S)    VAR(P)  DIIS     TIME  TIME/IT
   1      1.06069810    -0.26713810   -76.32400433    -0.00539885    -0.00039645  0.45D-03  0.82D-03  1  1     1.18     0.05
   2      1.06385297    -0.26755996   -76.32442620    -0.00042187    -0.00449182  0.77D-05  0.87D-04  2  2     1.20     0.04
   3      1.06489183    -0.26762286   -76.32448909    -0.00006289    -0.00082008  0.15D-05  0.40D-05  3  3     1.23     0.03
   4      1.06516294    -0.26763321   -76.32449944    -0.00001035    -0.00016253  0.11D-06  0.20D-06  4  4     1.25     0.03
   5      1.06519966    -0.26763058   -76.32449682     0.00000263    -0.00001876  0.37D-07  0.12D-07  5  5     1.27     0.03
   6      1.06520581    -0.26763045   -76.32449669     0.00000013    -0.00000173  0.56D-08  0.12D-08  6  6     1.30     0.03
   7      1.06520753    -0.26763058   -76.32449681    -0.00000013    -0.00000032  0.85D-09  0.17D-09  6  1     1.32     0.03

 Norm of t1 vector:      0.02622678      S-energy:     0.00000001      T1 diagnostic:  0.00655669
                                                                       D1 diagnostic:  0.01083951
                                                                       D2 diagnostic:  0.12654031 (internal)


 RESULTS
 =======

  Reference energy                    -76.056866233115
  CCSD singlet pair energy             -0.182643097201
  CCSD triplet pair energy             -0.084987489754
  CCSD correlation energy              -0.267630578982

 !CCSD total energy                   -76.324496812097

 Timing summary (sec):

 STEP                 CPU(USER)    SYS     CPU(TOT)    WALL
 Transformation          0.02      0.01      0.03      0.81
 CCSD iterations         1.30      0.01      1.31      0.21

 Program statistics:

 Available memory in ccsd:               805306300
 Min. memory needed in ccsd:                 60391
 Max. memory used in ccsd:                   68071
 Max. memory used in cckext:                109424 ( 7 integral passes)



 **********************************************************************************************************************************
 DATASETS  * FILE   NREC   LENGTH (MB)   RECORD NAMES
              1      20       33.52       500      610      700      900      950      970     1000      129      960     1100   
                                          VAR    BASINP    GEOM    SYMINP    ZMAT    AOBASIS   BASIS     P2S    ABASIS      S 
                                         1400     1410     1200     1210     1080     1600     1650     1300     1700     1380   
                                           T        V       H0       H01     AOSYM     SMH    MOLCAS    ERIS     OPER     JKOP   

              2       4        0.44       700     1000      520     2100   
                                         GEOM     BASIS   MCVARS     RHF  

 PROGRAMS   *        TOTAL      CCSD    HF-SCF       INT
 CPU TIMES  *         0.96      0.23      0.07      0.53
 REAL TIME  *         3.67 SEC
 DISK USED  *        45.39 MB
 **********************************************************************************************************************************

 Dump information in style XML to xml output                                                                      

 Orbitals will not be exported.

 **********************************************************************************************************************************

 CCSD/cc-pVTZ energy=    -76.324496812097

            CCSD          HF-SCF
    -76.32449681    -76.05686623
 **********************************************************************************************************************************
 Molpro calculation terminated
