
 Working directory              : /home/jovyan/scratch/molpro.klvqD826Kt/
 Global scratch directory       : /home/jovyan/scratch/molpro.klvqD826Kt/
 Wavefunction directory         : /home/jovyan/wfu/
 Main file repository           : /home/jovyan/scratch/molpro.klvqD826Kt/

 id        : cardiff

 Nodes                nprocs
 jupyter-c-2efrancisan    1
 GA implementation: MPI file
 GA implementation (serial work in mppx): MPI file

 Using customized tuning parameters: mindgm=1; mindgv=20; mindgc=4; mindgr=1; noblas=0; minvec=7
 default implementation of scratch files=df  


 Variables initialized (1031), CPU time= 0.00 sec
 
 
 
 geometry={
 4
  O     0.0402907   -0.7150390   -0.2337508
  O    -0.0402907    0.7150390   -0.2337508
  H    -0.7702468   -0.9380581    0.2337569
  H     0.7702468    0.9380581    0.2337569
 }
 basis=cc-pVTZ
 angstrom
 
 
 hf; mp4
 
 
 
 {put,xml;noorbitals,nobasis}
 Commands initialized (841), CPU time= 0.01 sec, 704 directives.
 Default parameters read. Elapsed time= 0.08 sec

 Checking input...
 Passed
1


                                         ***  PROGRAM SYSTEM MOLPRO  ***
                                       Copyright, TTI GmbH Stuttgart, 2015
                                    Version 2023.1 linked Mon Jun  5 13:27:10 2023


 **********************************************************************************************************************************
 LABEL *                                                                                                                                                                 
  (16 PROC) 64 bit serial version                                                        DATE: 03-Aug-23          TIME: 16:44:32  
 **********************************************************************************************************************************

 SHA1:             9738a14712571edd23541b6d7c4f3a3d766f8287
 **********************************************************************************************************************************

 Memory per process:       805 MW
 Total memory per node:   1074 MW
 Total GA space:           268 MW

 GA preallocation disabled
 GA check enabled

 Geometry recognized as XYZ


 Variable memory set to 805.3 MW

 SETTING BASIS          =    CC-PVTZ


 Recomputing integrals since basis changed


 Using spherical harmonics

 Library entry O      S cc-pVTZ              selected for orbital group  1
 Library entry O      P cc-pVTZ              selected for orbital group  1
 Library entry O      D cc-pVTZ              selected for orbital group  1
 Library entry O      F cc-pVTZ              selected for orbital group  1
 Library entry H      S cc-pVTZ              selected for orbital group  2
 Library entry H      P cc-pVTZ              selected for orbital group  2
 Library entry H      D cc-pVTZ              selected for orbital group  2


 PROGRAM * SEWARD (Integral evaluation for generally contracted gaussian basis sets)     Author: Roland Lindh, 1990

 Geometry written to block  1 of record 700


 Point group  C2  



 ATOMIC COORDINATES

 NR  ATOM    CHARGE       X              Y              Z

   1  O       8.00    0.076138388   -1.351227878   -0.441724993
   2  O       8.00   -0.076138388    1.351227878   -0.441724993
   3  H       1.00   -1.455555500   -1.772672898    0.441736521
   4  H       1.00    1.455555500    1.772672898    0.441736521

 Bond lengths in Bohr (Angstrom)

 1-2  2.706742569  1-3  1.817747595  2-4  1.817747595
     ( 1.432346483)     ( 0.961910603)     ( 0.961910603)

 Bond angles

  1-2-4  100.60737277   2-1-3  100.60737277

 NUCLEAR CHARGE:                   18
 NUMBER OF PRIMITIVE AOS:         128
 NUMBER OF SYMMETRY AOS:          116
 NUMBER OF CONTRACTIONS:           88   (   44A   +   44B   )
 NUMBER OF INNER CORE ORBITALS:     0   (    0A   +    0B   )
 NUMBER OF OUTER CORE ORBITALS:     2   (    1A   +    1B   )
 NUMBER OF VALENCE ORBITALS:       10   (    5A   +    5B   )


 NUCLEAR REPULSION ENERGY   37.20075843

 Eigenvalues of metric

         1 0.289E-02 0.664E-02 0.107E-01 0.426E-01 0.458E-01 0.499E-01 0.818E-01 0.875E-01
         2 0.310E-02 0.487E-02 0.860E-02 0.186E-01 0.430E-01 0.462E-01 0.513E-01 0.859E-01


 Contracted 2-electron integrals neglected if value below      1.0D-11
 AO integral compression algorithm  1   Integral accuracy      1.0D-11

     23.331 MB (compressed) written to integral file ( 48.4%)


 NUMBER OF SORTED TWO-ELECTRON INTEGRALS:    3921390.     BUFFER LENGTH:  32768
 NUMBER OF SEGMENTS:   1  SEGMENT LENGTH:    3921390      RECORD LENGTH: 524288

 Memory used in sort:       4.48 MW

 SORT1 READ     5967112. AND WROTE     3476590. INTEGRALS IN     10 RECORDS. CPU TIME:     0.05 SEC, REAL TIME:     0.30 SEC
 SORT2 READ     3476590. AND WROTE     3921390. INTEGRALS IN     89 RECORDS. CPU TIME:     0.14 SEC, REAL TIME:     0.16 SEC

 FILE SIZES:   FILE 1:    53.6 MBYTE,  FILE 4:    42.0 MBYTE,   TOTAL:     95.6 MBYTE

 OPERATOR DM      FOR CENTER  0  COORDINATES:    0.000000    0.000000    0.000000


 **********************************************************************************************************************************
 DATASETS  * FILE   NREC   LENGTH (MB)   RECORD NAMES
              1      19       44.15       500      610      700      900      950      970     1000      129      960     1100   
                                          VAR    BASINP    GEOM    SYMINP    ZMAT    AOBASIS   BASIS     P2S    ABASIS      S 
                                         1400     1410     1200     1210     1080     1600     1650     1300     1700   
                                           T        V       H0       H01     AOSYM     SMH    MOLCAS    ERIS     OPER   

 PROGRAMS   *        TOTAL       INT
 CPU TIMES  *         1.27      1.13
 REAL TIME  *         2.61 SEC
 DISK USED  *        91.54 MB
 **********************************************************************************************************************************


 Program * Restricted Hartree-Fock

 Orbital guess generated from atomic densities. Full valence occupancy:    6   6

 Initial occupancy:   5   4

 NELEC=   18   SYM=1   MS2= 0   THRE=1.0D-08   THRD=3.2D-06   THRG=3.2D-06  HFMA2=F  DIIS_START=2   DIIS_MAX=10   DIIS_INCORE=F

 Level shifts:    0.00 (CLOSED)    0.00 (OPEN)    0.30 (GAP_MIN)

 ITER           ETOT              DE          GRAD        DDIFF     DIIS  NEXP   TIME(IT)  TIME(TOT)  DIAG
   1     -150.81001152    -150.81001152     0.00D+00     0.13D+00     0     0       0.03      0.05    start
   2     -150.83618256      -0.02617103     0.99D-02     0.12D-01     1     0       0.03      0.08    diag
   3     -150.83727874      -0.00109618     0.21D-02     0.18D-02     2     0       0.03      0.11    diag
   4     -150.83740263      -0.00012389     0.54D-03     0.74D-03     3     0       0.02      0.13    diag
   5     -150.83741722      -0.00001460     0.20D-03     0.21D-03     4     0       0.03      0.16    diag
   6     -150.83741853      -0.00000131     0.45D-04     0.57D-04     5     0       0.02      0.18    diag
   7     -150.83741860      -0.00000007     0.89D-05     0.13D-04     6     0       0.03      0.21    diag
   8     -150.83741860      -0.00000000     0.21D-05     0.40D-05     7     0       0.02      0.23    fixocc
   9     -150.83741860      -0.00000000     0.57D-06     0.10D-05     8     0       0.03      0.26    diag
  10     -150.83741860      -0.00000000     0.13D-06     0.17D-06     0     0       0.03      0.29    diag/orth

 Final occupancy:   5   4

 !RHF STATE 1.1 Energy               -150.837418600472
  RHF One-electron energy            -282.142508416886
  RHF Two-electron energy              94.104331384106
  RHF Kinetic energy                  150.656022436377
  RHF Nuclear energy                   37.200758432308
  RHF Virial quotient                  -1.001204041904

 !RHF STATE 1.1 Dipole moment           0.00000000     0.00000000     0.67178741
 Dipole moment /Debye                   0.00000000     0.00000000     1.70751329

 Orbital energies:

           1.1          2.1          3.1          4.1          5.1          6.1          7.1
    -20.624075    -1.480268    -0.709361    -0.612689    -0.518993     0.149764     0.576794

           1.2          2.2          3.2          4.2          5.2          6.2
    -20.623778    -1.208889    -0.713936    -0.474936     0.158828     0.291533


 HOMO      4.2    -0.474936 =     -12.9237eV
 LUMO      6.1     0.149764 =       4.0753eV
 LUMO-HOMO         0.624700 =      16.9990eV

 Orbitals saved in record  2100.2


 **********************************************************************************************************************************
 DATASETS  * FILE   NREC   LENGTH (MB)   RECORD NAMES
              1      19       44.15       500      610      700      900      950      970     1000      129      960     1100   
                                          VAR    BASINP    GEOM    SYMINP    ZMAT    AOBASIS   BASIS     P2S    ABASIS      S 
                                         1400     1410     1200     1210     1080     1600     1650     1300     1700   
                                           T        V       H0       H01     AOSYM     SMH    MOLCAS    ERIS     OPER   

              2       4        0.50       700     1000      520     2100   
                                         GEOM     BASIS   MCVARS     RHF  

 PROGRAMS   *        TOTAL    HF-SCF       INT
 CPU TIMES  *         1.56      0.29      1.13
 REAL TIME  *         2.95 SEC
 DISK USED  *        91.54 MB
 **********************************************************************************************************************************


 PROGRAM * MP4 (Closed-shell)     Authors: C. Hampel, H.-J. Werner, 1991, M. Deegan, P.J. Knowles, 1992


 Convergence thresholds:  THRVAR = 1.00D-08  THRDEN = 1.00D-06

 MP4(T)     terms to be evaluated (factor= 0.000)


 Number of core orbitals:           2 (   1   1 )
 Number of closed-shell orbitals:   7 (   4   3 )
 Number of external orbitals:      79 (  39  40 )

 Molecular orbitals read from record     2100.2  Type=RHF/CANONICAL  

 Number of N-1 electron functions:               7
 Number of N-2 electron functions:              28
 Number of singly external CSFs:               276
 Number of doubly external CSFs:             76729
 Total number of CSFs:                       77006

 Length of J-op  integral file:               0.00 MB
 Length of K-op  integral file:               0.33 MB

 Memory could be reduced to 2.50 Mwords without degradation in triples

 Integral transformation finished. Total CPU:   0.12 sec, npass=  1  Memory used:   1.20 MW

 Reference energy:                   -150.83741860

                        CORR.ENERGY   TOTAL ENERGY   ENERGY CHANGE
 MP2:                   -0.49505781  -151.33247641    -0.49505781

 SCS-MP2 correlation energy:           -0.48749353   (PS=  1.200000  PT=  0.333333)
 SCS-MP2 total energy:               -151.32491213

 MP3(D):                -0.49849427  -151.33591287    -0.00343645
 MP4(DQ):               -0.49923022  -151.33664882    -0.00073596
 MP4(SDQ):              -0.50365218  -151.34107078    -0.00442195

 Norm of t1 vector:      0.04209586      S-energy:    -0.00442195      T1 diagnostic:  0.00795537


 Total CPU time for triples:      0.76 sec


 RESULTS
 =======

  Reference energy                   -150.837418600472
  MP4(SDQ) singlet pair energy         -0.330803035229
  MP4(SDQ) triplet pair energy         -0.168427187444
  MP4(SDQ) correlation energy          -0.503652175437

  Triples contribution                 -0.019461780996
  Total correlation energy             -0.523113956433

  MP4(SDQ) total energy              -151.341070775908
 !MP4(SDTQ) total energy             -151.360532556905

 Timing summary (sec):

 STEP                 CPU(USER)    SYS     CPU(TOT)    WALL
 Transformation          0.12      0.03      0.15      0.30
 CCSD iterations         2.06      0.01      2.07      0.18
 Triples                 0.76      0.05      0.81      0.82

 Program statistics:

 Available memory in ccsd:               805306167
 Min. memory needed in ccsd:                255194
 Max. memory used in ccsd:                  315742
 Max. memory used in cckext:                357593 ( 1 integral passes)



 **********************************************************************************************************************************
 DATASETS  * FILE   NREC   LENGTH (MB)   RECORD NAMES
              1      20       52.12       500      610      700      900      950      970     1000      129      960     1100   
                                          VAR    BASINP    GEOM    SYMINP    ZMAT    AOBASIS   BASIS     P2S    ABASIS      S 
                                         1400     1410     1200     1210     1080     1600     1650     1300     1700     1380   
                                           T        V       H0       H01     AOSYM     SMH    MOLCAS    ERIS     OPER     JKOP   

              2       4        0.50       700     1000      520     2100   
                                         GEOM     BASIS   MCVARS     RHF  

 PROGRAMS   *        TOTAL       MP4    HF-SCF       INT
 CPU TIMES  *         2.66      1.09      0.29      1.13
 REAL TIME  *         4.29 SEC
 DISK USED  *        91.54 MB
 **********************************************************************************************************************************

 Dump information in style XML to xml output                                                                      

 Orbitals will not be exported.

 **********************************************************************************************************************************

 MP4/cc-pVTZ energy=   -151.360532556905

             MP4          HF-SCF
   -151.36053256   -150.83741860
 **********************************************************************************************************************************
 Molpro calculation terminated
