
 Working directory              : /home/jovyan/scratch/molpro.39Ovd3BBF6/
 Global scratch directory       : /home/jovyan/scratch/molpro.39Ovd3BBF6/
 Wavefunction directory         : /home/jovyan/wfu/
 Main file repository           : /home/jovyan/scratch/molpro.39Ovd3BBF6/

 id        : cardiff

 Nodes                nprocs
 jupyter-c-2efrancisan    1
 GA implementation: MPI file
 GA implementation (serial work in mppx): MPI file

 Using customized tuning parameters: mindgm=1; mindgv=20; mindgc=4; mindgr=1; noblas=0; minvec=7
 default implementation of scratch files=df  


 Variables initialized (1031), CPU time= 0.00 sec
 
 
 
 geometry={
 10
  B     0.0000000    0.0000000   -3.0934966
  H     0.5950210    1.0306066   -3.1108480
  H     0.5950210   -1.0306066   -3.1108480
  H    -1.1900420    0.0000000   -3.1108480
  P     0.0000000    0.0000000    2.8489335
  H     0.5938246    1.0285344    3.6029291
  H     0.5938246   -1.0285344    3.6029291
  H    -1.1876492    0.0000000    3.6029291
  H     0.0000000    0.0000000   -0.9896633
  H     0.0000000    0.0000000   -0.2420169
 }
 basis=cc-pVTZ
 angstrom
 
 
 hf; ccsd
 
 
 
 {put,xml;noorbitals,nobasis}
 Commands initialized (841), CPU time= 0.00 sec, 704 directives.
 Default parameters read. Elapsed time= 0.08 sec

 Checking input...
 Passed
1


                                         ***  PROGRAM SYSTEM MOLPRO  ***
                                       Copyright, TTI GmbH Stuttgart, 2015
                                    Version 2023.1 linked Mon Jun  5 13:27:10 2023


 **********************************************************************************************************************************
 LABEL *                                                                                                                                                                 
  (16 PROC) 64 bit serial version                                                        DATE: 02-Aug-23          TIME: 15:50:12  
 **********************************************************************************************************************************

 SHA1:             9738a14712571edd23541b6d7c4f3a3d766f8287
 **********************************************************************************************************************************

 Memory per process:       805 MW
 Total memory per node:   1074 MW
 Total GA space:           268 MW

 GA preallocation disabled
 GA check enabled

 Geometry recognized as XYZ


 Variable memory set to 805.3 MW

 SETTING BASIS          =    CC-PVTZ


 Recomputing integrals since basis changed


 Using spherical harmonics

 Library entry B      S cc-pVTZ              selected for orbital group  1
 Library entry B      P cc-pVTZ              selected for orbital group  1
 Library entry B      D cc-pVTZ              selected for orbital group  1
 Library entry B      F cc-pVTZ              selected for orbital group  1
 Library entry H      S cc-pVTZ              selected for orbital group  2
 Library entry H      P cc-pVTZ              selected for orbital group  2
 Library entry H      D cc-pVTZ              selected for orbital group  2
 Library entry P      S cc-pVTZ              selected for orbital group  3
 Library entry P      P cc-pVTZ              selected for orbital group  3
 Library entry P      D cc-pVTZ              selected for orbital group  3
 Library entry P      F cc-pVTZ              selected for orbital group  3


 PROGRAM * SEWARD (Integral evaluation for generally contracted gaussian basis sets)     Author: Roland Lindh, 1990

 Geometry written to block  1 of record 700


 Point group  Cs  



 ATOMIC COORDINATES

 NR  ATOM    CHARGE       X              Y              Z

   1  B       5.00    0.000000000    0.000000000   -5.845861341
   2  H       1.00    1.124426728    1.947564216   -5.878650735
   3  H       1.00    1.124426728   -1.947564216   -5.878650735
   4  H       1.00   -2.248853457    0.000000000   -5.878650735
   5  P      15.00    0.000000000    0.000000000    5.383704062
   6  H       1.00    1.122165860    1.943648326    6.808549245
   7  H       1.00    1.122165860   -1.943648326    6.808549245
   8  H       1.00   -2.244331720    0.000000000    6.808549245
   9  H       1.00    0.000000000    0.000000000   -1.870192593
  10  H       1.00    0.000000000    0.000000000   -0.457345659

 Bond lengths in Bohr (Angstrom)

 1-2  2.249092481  1-3  2.249092481  1-4  2.249092487  5-6  2.658422244  5-7  2.658422244
     ( 1.190168486)     ( 1.190168486)     ( 1.190168489)     ( 1.406776469)     ( 1.406776469)

  5- 8  2.658422214   9-10  1.412846934
       ( 1.406776452)       ( 0.747646400)

 Bond angles

  2-1-3  119.97890921   2-1-4  119.97890947   3-1-4  119.97890947   6-5-7   93.96217127

  6-5-8   93.96217000   7-5-8   93.96217000

 NUCLEAR CHARGE:                   28
 NUMBER OF PRIMITIVE AOS:         247
 NUMBER OF SYMMETRY AOS:          229
 NUMBER OF CONTRACTIONS:          176   (  111A'  +   65A"  )
 NUMBER OF INNER CORE ORBITALS:     1   (    1A'  +    0A"  )
 NUMBER OF OUTER CORE ORBITALS:     5   (    4A'  +    1A"  )
 NUMBER OF VALENCE ORBITALS:       16   (   12A'  +    4A"  )


 NUCLEAR REPULSION ENERGY   47.01365845


 Eigenvalues of metric

         1 0.874E-03 0.907E-03 0.148E-02 0.164E-02 0.242E-02 0.259E-02 0.385E-02 0.619E-02
         2 0.164E-02 0.242E-02 0.140E-01 0.155E-01 0.176E-01 0.296E-01 0.308E-01 0.519E-01


 Contracted 2-electron integrals neglected if value below      1.0D-11
 AO integral compression algorithm  1   Integral accuracy      1.0D-11

     116.916 MB (compressed) written to integral file ( 27.4%)


 NUMBER OF SORTED TWO-ELECTRON INTEGRALS:   61623981.     BUFFER LENGTH:  32768
 NUMBER OF SEGMENTS:   4  SEGMENT LENGTH:   15999984      RECORD LENGTH: 524288

 Memory used in sort:      16.56 MW

 SORT1 READ    53226335. AND WROTE    28645640. INTEGRALS IN     84 RECORDS. CPU TIME:     0.71 SEC, REAL TIME:     1.14 SEC
 SORT2 READ    28645640. AND WROTE    61623981. INTEGRALS IN    446 RECORDS. CPU TIME:     1.06 SEC, REAL TIME:     1.21 SEC

 FILE SIZES:   FILE 1:   147.9 MBYTE,  FILE 4:   352.4 MBYTE,   TOTAL:    500.3 MBYTE

 OPERATOR DM      FOR CENTER  0  COORDINATES:    0.000000    0.000000    0.000000


 **********************************************************************************************************************************
 DATASETS  * FILE   NREC   LENGTH (MB)   RECORD NAMES
              1      19      134.72       500      610      700      900      950      970     1000      129      960     1100   
                                          VAR    BASINP    GEOM    SYMINP    ZMAT    AOBASIS   BASIS     P2S    ABASIS      S 
                                         1400     1410     1200     1210     1080     1600     1650     1300     1700   
                                           T        V       H0       H01     AOSYM     SMH    MOLCAS    ERIS     OPER   

 PROGRAMS   *        TOTAL       INT
 CPU TIMES  *         6.72      6.60
 REAL TIME  *         8.58 SEC
 DISK USED  *       477.63 MB
 **********************************************************************************************************************************


 Program * Restricted Hartree-Fock

 Orbital guess generated from atomic densities. Full valence occupancy:   17   5

 Initial occupancy:  11   3

 NELEC=   28   SYM=1   MS2= 0   THRE=1.0D-08   THRD=3.2D-06   THRG=3.2D-06  HFMA2=F  DIIS_START=2   DIIS_MAX=10   DIIS_INCORE=F

 Level shifts:    0.00 (CLOSED)    0.00 (OPEN)    0.30 (GAP_MIN)

 ITER           ETOT              DE          GRAD        DDIFF     DIIS  NEXP   TIME(IT)  TIME(TOT)  DIAG
   1     -369.98631371    -369.98631371     0.00D+00     0.79D-01     0     0       0.48      0.93    start
   2     -370.01266001      -0.02634630     0.30D-02     0.48D-02     1     0       0.47      1.40    diag
   3     -370.01541092      -0.00275090     0.88D-03     0.12D-02     2     0       0.47      1.87    diag
   4     -370.01562151      -0.00021059     0.23D-03     0.34D-03     3     0       0.47      2.34    diag
   5     -370.01563396      -0.00001245     0.54D-04     0.13D-03     4     0       0.47      2.81    diag
   6     -370.01563438      -0.00000042     0.10D-04     0.27D-04     5     0       0.47      3.28    diag
   7     -370.01563440      -0.00000003     0.26D-05     0.88D-05     6     0       0.47      3.75    diag
   8     -370.01563440      -0.00000000     0.30D-06     0.11D-05     7     0       0.47      4.22    fixocc
   9     -370.01563440      -0.00000000     0.52D-07     0.11D-06     0     0       0.47      4.69    diag

 Final occupancy:  11   3

 !RHF STATE 1.1 Energy               -370.015634402108
  RHF One-electron energy            -602.479676672644
  RHF Two-electron energy             185.450383818564
  RHF Kinetic energy                  370.014420995922
  RHF Nuclear energy                   47.013658451972
  RHF Virial quotient                  -1.000003279348

 !RHF STATE 1.1 Dipole moment          -0.00000000     0.00000000     0.48984948
 Dipole moment /Debye                  -0.00000001     0.00000000     1.24507319

 Orbital energies:

           1.1          2.1          3.1          4.1          5.1          6.1          7.1          8.1          9.1         10.1
    -79.945988    -7.605519    -7.490331    -5.383793    -5.382868    -0.862386    -0.708902    -0.591823    -0.528251    -0.492986

          11.1         12.1         13.1
     -0.391574     0.075377     0.136485

           1.2          2.2          3.2          4.2          5.2
     -5.383793    -0.528251    -0.492986     0.150158     0.211739


 HOMO     11.1    -0.391574 =     -10.6553eV
 LUMO     12.1     0.075377 =       2.0511eV
 LUMO-HOMO         0.466952 =      12.7064eV

 Orbitals saved in record  2100.2


 **********************************************************************************************************************************
 DATASETS  * FILE   NREC   LENGTH (MB)   RECORD NAMES
              1      19      134.72       500      610      700      900      950      970     1000      129      960     1100   
                                          VAR    BASINP    GEOM    SYMINP    ZMAT    AOBASIS   BASIS     P2S    ABASIS      S 
                                         1400     1410     1200     1210     1080     1600     1650     1300     1700   
                                           T        V       H0       H01     AOSYM     SMH    MOLCAS    ERIS     OPER   

              2       4        0.81       700     1000      520     2100   
                                         GEOM     BASIS   MCVARS     RHF  

 PROGRAMS   *        TOTAL    HF-SCF       INT
 CPU TIMES  *        11.41      4.69      6.60
 REAL TIME  *        13.58 SEC
 DISK USED  *       477.63 MB
 **********************************************************************************************************************************


 PROGRAM * CCSD (Closed-shell coupled cluster)     Authors: C. Hampel, H.-J. Werner, 1991, M. Deegan, P.J. Knowles, 1992


 Convergence thresholds:  THRVAR = 1.00D-08  THRDEN = 1.00D-06

 Number of core orbitals:           6 (   5   1 )
 Number of closed-shell orbitals:   8 (   6   2 )
 Number of external orbitals:     162 ( 100  62 )

 Molecular orbitals read from record     2100.2  Type=RHF/CANONICAL  

 Number of N-1 electron functions:               8
 Number of N-2 electron functions:              36
 Number of singly external CSFs:               724
 Number of doubly external CSFs:            426328
 Total number of CSFs:                      427053

 Length of J-op  integral file:               0.00 MB
 Length of K-op  integral file:               1.20 MB
 Length of 3-ext integral record:             0.00 MB

 Integral transformation finished. Total CPU:   1.87 sec, npass=  1  Memory used:   8.09 MW

 Reference energy:                   -370.01563440

 MP2 singlet pair energy:              -0.25778036
 MP2 triplet pair energy:              -0.06189587
 MP2 correlation energy:               -0.31967623
 MP2 total energy:                   -370.33531063

 SCS-MP2 correlation energy:           -0.34784941   (PS=  1.200000  PT=  0.333333)
 SCS-MP2 total energy:               -370.36348382

 ITER.      SQ.NORM     CORR.ENERGY   TOTAL ENERGY   ENERGY CHANGE        DEN1      VAR(S)    VAR(P)  DIIS     TIME  TIME/IT
   1      1.16165160    -0.37237049  -370.38800489    -0.05269426    -0.03830318  0.93D-03  0.36D-02  1  1    15.18     1.61
   2      1.18432901    -0.37678044  -370.39241484    -0.00440995    -0.01702034  0.32D-04  0.17D-03  2  2    16.77     1.65
   3      1.18797485    -0.37683609  -370.39247049    -0.00005565    -0.00146539  0.14D-04  0.14D-04  3  3    18.38     1.68
   4      1.18914419    -0.37686376  -370.39249816    -0.00002767    -0.00028339  0.18D-05  0.13D-05  4  4    20.00     1.69
   5      1.18951191    -0.37686081  -370.39249522     0.00000294    -0.00008931  0.19D-06  0.16D-06  5  5    21.60     1.70
   6      1.18959274    -0.37685405  -370.39248845     0.00000676    -0.00001380  0.29D-07  0.18D-07  6  6    23.17     1.70
   7      1.18961217    -0.37685311  -370.39248752     0.00000094    -0.00000223  0.42D-08  0.26D-08  6  1    24.74     1.69
   8      1.18961632    -0.37685307  -370.39248747     0.00000005    -0.00000004  0.72D-09  0.29D-09  6  2    26.33     1.69

 Norm of t1 vector:      0.05727414      S-energy:     0.00000010      T1 diagnostic:  0.01012473
                                                                       D1 diagnostic:  0.02056380
                                                                       D2 diagnostic:  0.17408855 (internal)


 RESULTS
 =======

  Reference energy                   -370.015634402107
  CCSD singlet pair energy             -0.311854064037
  CCSD triplet pair energy             -0.064999102613
  CCSD correlation energy              -0.376853068757

 !CCSD total energy                  -370.392487470864

 Timing summary (sec):

 STEP                 CPU(USER)    SYS     CPU(TOT)    WALL
 Transformation          1.89      0.16      2.05      2.36
 CCSD iterations        24.46      0.61     25.07     13.60

 Program statistics:

 Available memory in ccsd:               805306101
 Min. memory needed in ccsd:               1305035
 Max. memory used in ccsd:                 1658679
 Max. memory used in cckext:               2087448 ( 8 integral passes)



 **********************************************************************************************************************************
 DATASETS  * FILE   NREC   LENGTH (MB)   RECORD NAMES
              1      20      207.27       500      610      700      900      950      970     1000      129      960     1100   
                                          VAR    BASINP    GEOM    SYMINP    ZMAT    AOBASIS   BASIS     P2S    ABASIS      S 
                                         1400     1410     1200     1210     1080     1600     1650     1300     1700     1380   
                                           T        V       H0       H01     AOSYM     SMH    MOLCAS    ERIS     OPER     JKOP   

              2       4        0.81       700     1000      520     2100   
                                         GEOM     BASIS   MCVARS     RHF  

 PROGRAMS   *        TOTAL      CCSD    HF-SCF       INT
 CPU TIMES  *        26.06     14.65      4.69      6.60
 REAL TIME  *        31.03 SEC
 DISK USED  *       477.63 MB
 **********************************************************************************************************************************

 Dump information in style XML to xml output                                                                      

 Orbitals will not be exported.

 **********************************************************************************************************************************

 CCSD/cc-pVTZ energy=   -370.392487470864

            CCSD          HF-SCF
   -370.39248747   -370.01563440
 **********************************************************************************************************************************
 Molpro calculation terminated
