
 Working directory              : /home/jovyan/scratch/molpro.NtnusKYu28/
 Global scratch directory       : /home/jovyan/scratch/molpro.NtnusKYu28/
 Wavefunction directory         : /home/jovyan/wfu/
 Main file repository           : /home/jovyan/scratch/molpro.NtnusKYu28/

 id        : cardiff

 Nodes                nprocs
 jupyter-c-2efrancisan    1
 GA implementation: MPI file
 GA implementation (serial work in mppx): MPI file

 Using customized tuning parameters: mindgm=1; mindgv=20; mindgc=4; mindgr=1; noblas=0; minvec=7
 default implementation of scratch files=df  


 Variables initialized (1031), CPU time= 0.00 sec
 
 
 
 geometry={
           11
     C         -0.09812376     -0.86171422      0.74510227
     C         -0.09812376     -0.86171422     -0.74510227
     C         -0.07649575      0.48854926      1.14927041
     C         -0.07649575      0.48854926     -1.14927041
     C         -0.06639375      1.29138755      0.00000000
     H          0.96023961     -1.09286530      0.00000000
     H         -0.24947482     -1.74512953      1.35355848
     H         -0.24947482     -1.74512953     -1.35355848
     H         -0.02538874      0.83198439      2.17492777
     H         -0.02538874      0.83198439     -2.17492777
     H          0.00512027      2.37409794      0.00000000
 }
 basis=cc-pVTZ
 angstrom
 
 
 hf; ccsd(t)
 
 
 
 {put,xml;noorbitals,nobasis}
 Commands initialized (841), CPU time= 0.01 sec, 704 directives.
 Default parameters read. Elapsed time= 0.08 sec

 Checking input...
 Passed
1


                                         ***  PROGRAM SYSTEM MOLPRO  ***
                                       Copyright, TTI GmbH Stuttgart, 2015
                                    Version 2023.1 linked Mon Jun  5 13:27:10 2023


 **********************************************************************************************************************************
 LABEL *                                                                                                                                                                 
  (16 PROC) 64 bit serial version                                                        DATE: 03-Aug-23          TIME: 11:48:43  
 **********************************************************************************************************************************

 SHA1:             9738a14712571edd23541b6d7c4f3a3d766f8287
 **********************************************************************************************************************************

 Memory per process:       805 MW
 Total memory per node:   1074 MW
 Total GA space:           268 MW

 GA preallocation disabled
 GA check enabled

 Geometry recognized as XYZ


 Variable memory set to 805.3 MW

 SETTING BASIS          =    CC-PVTZ


 Recomputing integrals since basis changed


 Using spherical harmonics

 Library entry C      S cc-pVTZ              selected for orbital group  1
 Library entry C      P cc-pVTZ              selected for orbital group  1
 Library entry C      D cc-pVTZ              selected for orbital group  1
 Library entry C      F cc-pVTZ              selected for orbital group  1
 Library entry H      S cc-pVTZ              selected for orbital group  2
 Library entry H      P cc-pVTZ              selected for orbital group  2
 Library entry H      D cc-pVTZ              selected for orbital group  2


 PROGRAM * SEWARD (Integral evaluation for generally contracted gaussian basis sets)     Author: Roland Lindh, 1990

 Geometry written to block  1 of record 700


 Point group  Cs  



 ATOMIC COORDINATES

 NR  ATOM    CHARGE       X              Y              Z

   1  C       6.00   -0.185427033   -1.628403873    1.408039225
   2  C       6.00   -0.185427033   -1.628403873   -1.408039225
   3  C       6.00   -0.144556017    0.923224300    2.171806318
   4  C       6.00   -0.144556017    0.923224300   -2.171806318
   5  C       6.00   -0.125466004    2.440368790    0.000000000
   6  H       1.00    1.814589877   -2.065216108    0.000000000
   7  H       1.00   -0.471439085   -3.297816864    2.557854821
   8  H       1.00   -0.471439085   -3.297816864   -2.557854821
   9  H       1.00   -0.047977765    1.572222637    4.110017826
  10  H       1.00   -0.047977765    1.572222637   -4.110017826
  11  H       1.00    0.009675908    4.486394900    0.000000000

 Bond lengths in Bohr (Angstrom)

 1-2  2.816078450  1-3  2.663797467  1-6  2.484642233  1-7  2.047148878  2-4  2.663797467
     ( 1.490204540)     ( 1.409620914)     ( 1.314816047)     ( 1.083304534)     ( 1.409620914)

 2-6  2.484642233  2-8  2.047148878  3-5  2.649308309  3-9  2.046262459  4-5  2.649308309
     ( 1.314816047)     ( 1.083304534)     ( 1.401953582)     ( 1.082835461)     ( 1.401953582)

  4-10  2.046262459   5-11  2.050484376
       ( 1.082835461)       ( 1.085069603)

 Bond angles

  1-2-4  106.66175794   1-2-6   55.47978489   1-2-8  124.17114784   1-3-5  108.27691816

  1-3-9  125.17759500   1-6-2   69.04043022   2-1-3  106.66175794   2-1-6   55.47978489

  2- 1- 7  124.17114784   2- 4- 5  108.27691816   2- 4-10  125.17759500   3- 1- 6  108.57437980

  3- 1- 7  128.48025281   3- 5- 4  110.12225738   3- 5-11  124.88189150   4- 2- 6  108.57437980

  4- 2- 8  128.48025281   4- 5-11  124.88189150   5- 3- 9  126.47779134   5- 4-10  126.47779134

  6-1-7  106.70181673   6-2-8  106.70181673

 NUCLEAR CHARGE:                   36
 NUMBER OF PRIMITIVE AOS:         337
 NUMBER OF SYMMETRY AOS:          306
 NUMBER OF CONTRACTIONS:          234   (  128A'  +  106A"  )
 NUMBER OF INNER CORE ORBITALS:     0   (    0A'  +    0A"  )
 NUMBER OF OUTER CORE ORBITALS:     5   (    3A'  +    2A"  )
 NUMBER OF VALENCE ORBITALS:       26   (   15A'  +   11A"  )


 NUCLEAR REPULSION ENERGY  158.26977708


 Eigenvalues of metric

         1 0.131E-03 0.970E-03 0.104E-02 0.129E-02 0.132E-02 0.171E-02 0.173E-02 0.210E-02
         2 0.204E-03 0.100E-02 0.106E-02 0.117E-02 0.145E-02 0.182E-02 0.191E-02 0.236E-02


 Contracted 2-electron integrals neglected if value below      1.0D-11
 AO integral compression algorithm  1   Integral accuracy      1.0D-11

     845.414 MB (compressed) written to integral file ( 48.4%)


 NUMBER OF SORTED TWO-ELECTRON INTEGRALS:  190627180.     BUFFER LENGTH:  32768
 NUMBER OF SEGMENTS:  12  SEGMENT LENGTH:   15999071      RECORD LENGTH: 524288

 Memory used in sort:      16.56 MW

 SORT1 READ   218086303. AND WROTE   183804935. INTEGRALS IN    533 RECORDS. CPU TIME:     3.16 SEC, REAL TIME:     4.70 SEC
 SORT2 READ   183804935. AND WROTE   190627180. INTEGRALS IN   3225 RECORDS. CPU TIME:     3.72 SEC, REAL TIME:     7.39 SEC

 FILE SIZES:   FILE 1:   877.0 MBYTE,  FILE 4:  2235.6 MBYTE,   TOTAL:   3112.6 MBYTE

 OPERATOR DM      FOR CENTER  0  COORDINATES:    0.000000    0.000000    0.000000


 **********************************************************************************************************************************
 DATASETS  * FILE   NREC   LENGTH (MB)   RECORD NAMES
              1      19      761.51       500      610      700      900      950      970     1000      129      960     1100   
                                          VAR    BASINP    GEOM    SYMINP    ZMAT    AOBASIS   BASIS     P2S    ABASIS      S 
                                         1400     1410     1200     1210     1080     1600     1650     1300     1700   
                                           T        V       H0       H01     AOSYM     SMH    MOLCAS    ERIS     OPER   

 PROGRAMS   *        TOTAL       INT
 CPU TIMES  *        25.94     25.80
 REAL TIME  *        37.53 SEC
 DISK USED  *         2.90 GB
 **********************************************************************************************************************************


 Program * Restricted Hartree-Fock

 Orbital guess generated from atomic densities. Full valence occupancy:   18  13

 Initial occupancy:  11   7

 NELEC=   36   SYM=1   MS2= 0   THRE=1.0D-08   THRD=3.2D-06   THRG=3.2D-06  HFMA2=F  DIIS_START=2   DIIS_MAX=10   DIIS_INCORE=F

 Level shifts:    0.00 (CLOSED)    0.00 (OPEN)    0.30 (GAP_MIN)

 ITER           ETOT              DE          GRAD        DDIFF     DIIS  NEXP   TIME(IT)  TIME(TOT)  DIAG
   1     -192.72983678    -192.72983678     0.00D+00     0.68D-01     0     0       1.32      2.63    start
   2     -192.78515546      -0.05531868     0.49D-02     0.76D-02     1     0       1.37      4.00    diag
   3     -192.79817439      -0.01301893     0.25D-02     0.27D-02     2     0       1.34      5.34    diag
   4     -192.79942016      -0.00124577     0.62D-03     0.12D-02     3     0       1.38      6.72    diag
   5     -192.79949139      -0.00007123     0.16D-03     0.24D-03     4     0       1.36      8.08    diag
   6     -192.79950300      -0.00001161     0.48D-04     0.12D-03     5     0       1.35      9.43    diag
   7     -192.79950522      -0.00000223     0.16D-04     0.43D-04     6     0       1.34     10.77    diag
   8     -192.79950587      -0.00000065     0.77D-05     0.24D-04     7     0       1.34     12.11    fixocc
   9     -192.79950595      -0.00000008     0.29D-05     0.92D-05     8     0       1.36     13.47    diag
  10     -192.79950596      -0.00000001     0.97D-06     0.32D-05     9     0       1.34     14.81    diag/orth
  11     -192.79950596      -0.00000000     0.21D-06     0.53D-06     9     0       1.36     16.17    diag
  12     -192.79950596      -0.00000000     0.89D-07     0.15D-06     0     0       1.34     17.51    diag

 Final occupancy:  11   7

 !RHF STATE 1.1 Energy               -192.799505960160
  RHF One-electron energy            -572.471734281556
  RHF Two-electron energy             221.402451242212
  RHF Kinetic energy                  192.439710782315
  RHF Nuclear energy                  158.269777079184
  RHF Virial quotient                  -1.001869651416

 !RHF STATE 1.1 Dipole moment           0.18280524    -0.47893116     0.00000000
 Dipole moment /Debye                   0.46464458    -1.21732160     0.00000000

 Orbital energies:

           1.1          2.1          3.1          4.1          5.1          6.1          7.1          8.1          9.1         10.1
    -11.257448   -11.221245   -11.213794    -1.172159    -0.976550    -0.743451    -0.701179    -0.604655    -0.531623    -0.510854

          11.1         12.1         13.1
     -0.350184     0.140660     0.162660

           1.2          2.2          3.2          4.2          5.2          6.2          7.2          8.2          9.2
    -11.256714   -11.213907    -0.954178    -0.744761    -0.553934    -0.526206    -0.300577     0.167312     0.178505


 HOMO      7.2    -0.300577 =      -8.1791eV
 LUMO     12.1     0.140660 =       3.8275eV
 LUMO-HOMO         0.441237 =      12.0067eV

 Orbitals saved in record  2100.2


 **********************************************************************************************************************************
 DATASETS  * FILE   NREC   LENGTH (MB)   RECORD NAMES
              1      19      761.51       500      610      700      900      950      970     1000      129      960     1100   
                                          VAR    BASINP    GEOM    SYMINP    ZMAT    AOBASIS   BASIS     P2S    ABASIS      S 
                                         1400     1410     1200     1210     1080     1600     1650     1300     1700   
                                           T        V       H0       H01     AOSYM     SMH    MOLCAS    ERIS     OPER   

              2       4        1.00       700     1000      520     2100   
                                         GEOM     BASIS   MCVARS     RHF  

 PROGRAMS   *        TOTAL    HF-SCF       INT
 CPU TIMES  *        43.45     17.51     25.80
 REAL TIME  *        57.24 SEC
 DISK USED  *         2.90 GB
 **********************************************************************************************************************************


 PROGRAM * CCSD (Closed-shell coupled cluster)     Authors: C. Hampel, H.-J. Werner, 1991, M. Deegan, P.J. Knowles, 1992


 Convergence thresholds:  THRVAR = 1.00D-08  THRDEN = 1.00D-06

 CCSD(T)     terms to be evaluated (factor= 1.000)


 Number of core orbitals:           5 (   3   2 )
 Number of closed-shell orbitals:  13 (   8   5 )
 Number of external orbitals:     216 ( 117  99 )

 Molecular orbitals read from record     2100.2  Type=RHF/CANONICAL  

 Number of N-1 electron functions:              13
 Number of N-2 electron functions:              91
 Number of singly external CSFs:              1431
 Number of doubly external CSFs:           1973349
 Total number of CSFs:                     1974781

 Length of J-op  integral file:               0.00 MB
 Length of K-op  integral file:               1.96 MB
 Length of 3-ext integral record:             0.00 MB

 Memory could be reduced to 82.93 Mwords without degradation in triples

 Integral transformation finished. Total CPU:  10.80 sec, npass=  1  Memory used:  35.07 MW

 Reference energy:                   -192.79950596

 MP2 singlet pair energy:              -0.51596208
 MP2 triplet pair energy:              -0.30933361
 MP2 correlation energy:               -0.82529569
 MP2 total energy:                   -193.62480165

 SCS-MP2 correlation energy:           -0.81162874   (PS=  1.200000  PT=  0.333333)
 SCS-MP2 total energy:               -193.61113470

 ITER.      SQ.NORM     CORR.ENERGY   TOTAL ENERGY   ENERGY CHANGE        DEN1      VAR(S)    VAR(P)  DIIS     TIME  TIME/IT
   1      1.28186485    -0.84275629  -193.64226225    -0.01746060     0.00448144  0.34D-02  0.59D-02  1  1    63.29     9.25
   2      1.30097959    -0.84540684  -193.64491280    -0.00265055    -0.01964081  0.58D-04  0.66D-03  2  2    72.56     9.50
   3      1.30815943    -0.84540851  -193.64491447    -0.00000168    -0.00391988  0.34D-04  0.52D-04  3  3    81.84     9.59
   4      1.31076582    -0.84547367  -193.64497963    -0.00006515    -0.00086066  0.43D-05  0.77D-05  4  4    91.25     9.65
   5      1.31171777    -0.84550374  -193.64500970    -0.00003007    -0.00022063  0.13D-05  0.75D-06  5  5   100.43     9.65
   6      1.31198673    -0.84549456  -193.64500052     0.00000918    -0.00003569  0.21D-06  0.79D-07  6  6   109.59     9.65
   7      1.31204370    -0.84549368  -193.64499964     0.00000088    -0.00000166  0.51D-07  0.11D-07  6  2   118.86     9.66
   8      1.31206203    -0.84549350  -193.64499946     0.00000018    -0.00000111  0.57D-08  0.25D-08  6  1   127.97     9.65

 Norm of t1 vector:      0.07896491      S-energy:    -0.00000095      T1 diagnostic:  0.01095046
                                                                       D1 diagnostic:  0.03448491
                                                                       D2 diagnostic:  0.18341513 (internal)

 Doubles amplitudes (print threshold =  0.500E-01):

         I         J         SYM. A    SYM. B    A         B      T(IJ, AB)

        13        13         2         2         1         1     -0.06711600


 Total CPU time for triples:    231.12 sec


 RESULTS
 =======

  Reference energy                   -192.799505960160
  CCSD singlet pair energy             -0.568918423459
  CCSD triplet pair energy             -0.276574134455
  CCSD correlation energy              -0.845493504246

  Triples (T) contribution             -0.044693300958
  Total correlation energy             -0.890186805204

  CCSD total energy                  -193.644999464406
  CCSD[T] energy                     -193.690600474383
  CCSD-T energy                      -193.689315585294
 !CCSD(T) total energy               -193.689692765364

 Timing summary (sec):

 STEP                 CPU(USER)    SYS     CPU(TOT)    WALL
 Transformation         10.91      0.78     11.69     12.33
 CCSD iterations       117.17      2.98    120.15     77.37
 Triples               231.12      6.36    237.48    239.27

 Program statistics:

 Available memory in ccsd:               805305681
 Min. memory needed in ccsd:               5062113
 Max. memory used in ccsd:                 6831534
 Max. memory used in cckext:               6974495 ( 8 integral passes)



 **********************************************************************************************************************************
 DATASETS  * FILE   NREC   LENGTH (MB)   RECORD NAMES
              1      20     1041.62       500      610      700      900      950      970     1000      129      960     1100   
                                          VAR    BASINP    GEOM    SYMINP    ZMAT    AOBASIS   BASIS     P2S    ABASIS      S 
                                         1400     1410     1200     1210     1080     1600     1650     1300     1700     1380   
                                           T        V       H0       H01     AOSYM     SMH    MOLCAS    ERIS     OPER     JKOP   

              2       4        1.00       700     1000      520     2100   
                                         GEOM     BASIS   MCVARS     RHF  

 PROGRAMS   *        TOTAL   CCSD(T)    HF-SCF       INT
 CPU TIMES  *       359.02    315.56     17.51     25.80
 REAL TIME  *       386.45 SEC
 DISK USED  *         2.90 GB
 **********************************************************************************************************************************

 Dump information in style XML to xml output                                                                      

 Orbitals will not be exported.

 **********************************************************************************************************************************

 CCSD(T)/cc-pVTZ energy=   -193.689692765364

         CCSD(T)          HF-SCF
   -193.68969277   -192.79950596
 **********************************************************************************************************************************
 Molpro calculation terminated
