
 Working directory              : /home/jovyan/scratch/molpro.Fq5w4Jl3mY/
 Global scratch directory       : /home/jovyan/scratch/molpro.Fq5w4Jl3mY/
 Wavefunction directory         : /home/jovyan/wfu/
 Main file repository           : /home/jovyan/scratch/molpro.Fq5w4Jl3mY/

 id        : cardiff

 Nodes                nprocs
 jupyter-c-2efrancisan    1
 GA implementation: MPI file
 GA implementation (serial work in mppx): MPI file

 Using customized tuning parameters: mindgm=1; mindgv=20; mindgc=4; mindgr=1; noblas=0; minvec=7
 default implementation of scratch files=df  


 Variables initialized (1031), CPU time= 0.01 sec
 
 
 
 geometry={
           11
     C         -1.03666222      1.00226747      0.00000000
     C         -0.99802842     -0.37323986      0.00000000
     C          1.15125899     -0.89785440      0.00000000
     N          1.59581209      0.37970345      0.00000000
     N          1.23898727      1.47513174      0.00000000
     H         -1.16993317      1.56007075     -0.91825218
     H         -1.16993317      1.56007075      0.91825218
     H         -1.19957230     -0.92033561     -0.91402853
     H         -1.19957230     -0.92033561      0.91402853
     H          1.39382161     -1.43273935      0.91491930
     H          1.39382161     -1.43273935     -0.91491930
 }
 basis=cc-pVDZ
 angstrom
 
 
 hf; ccsd(t)
 
 
 
 {put,xml;noorbitals,nobasis}
 Commands initialized (841), CPU time= 0.01 sec, 704 directives.
 Default parameters read. Elapsed time= 0.08 sec

 Checking input...
 Passed
1


                                         ***  PROGRAM SYSTEM MOLPRO  ***
                                       Copyright, TTI GmbH Stuttgart, 2015
                                    Version 2023.1 linked Mon Jun  5 13:27:10 2023


 **********************************************************************************************************************************
 LABEL *                                                                                                                                                                 
  (16 PROC) 64 bit serial version                                                        DATE: 03-Aug-23          TIME: 11:48:16  
 **********************************************************************************************************************************

 SHA1:             9738a14712571edd23541b6d7c4f3a3d766f8287
 **********************************************************************************************************************************

 Memory per process:       805 MW
 Total memory per node:   1074 MW
 Total GA space:           268 MW

 GA preallocation disabled
 GA check enabled

 Geometry recognized as XYZ


 Variable memory set to 805.3 MW

 SETTING BASIS          =    CC-PVDZ


 Recomputing integrals since basis changed


 Using spherical harmonics

 Library entry C      S cc-pVDZ              selected for orbital group  1
 Library entry C      P cc-pVDZ              selected for orbital group  1
 Library entry C      D cc-pVDZ              selected for orbital group  1
 Library entry N      S cc-pVDZ              selected for orbital group  2
 Library entry N      P cc-pVDZ              selected for orbital group  2
 Library entry N      D cc-pVDZ              selected for orbital group  2
 Library entry H      S cc-pVDZ              selected for orbital group  3
 Library entry H      P cc-pVDZ              selected for orbital group  3


 PROGRAM * SEWARD (Integral evaluation for generally contracted gaussian basis sets)     Author: Roland Lindh, 1990

 Geometry written to block  1 of record 700


 Point group  Cs  



 ATOMIC COORDINATES

 NR  ATOM    CHARGE       X              Y              Z

   1  C       6.00   -1.959007680    1.894011022    0.000000000
   2  C       6.00   -1.886000378   -0.705321114    0.000000000
   3  C       6.00    2.175564190   -1.696698916    0.000000000
   4  N       7.00    3.015647796    0.717535529    0.000000000
   5  N       7.00    2.341346612    2.787594986    0.000000000
   6  H       1.00   -2.210853275    2.948106453   -1.735245134
   7  H       1.00   -2.210853275    2.948106453    1.735245134
   8  H       1.00   -2.266863114   -1.739182246   -1.727263592
   9  H       1.00   -2.266863114   -1.739182246    1.727263592
  10  H       1.00    2.633941109   -2.707484979    1.728946903
  11  H       1.00    2.633941109   -2.707484979   -1.728946903

 Bond lengths in Bohr (Angstrom)

 1-2  2.600357210  1-6  2.045878553  1-7  2.045878553  2-8  2.048747124  2-9  2.048747124
     ( 1.376049776)     ( 1.082632307)     ( 1.082632307)     ( 1.084150289)     ( 1.084150289)

  3- 4  2.556221513   3-10  2.054520689   3-11  2.054520689   4- 5  2.177114660
       ( 1.352694170)       ( 1.087205528)       ( 1.087205528)       ( 1.152079464)

 Bond angles

  1-2-8  119.94792439   1-2-9  119.94792439   2-1-6  121.23046507   2-1-7  121.23046507

  3- 4- 5  142.77108279   4- 3-10  113.03738549   4- 3-11  113.03738549   6- 1- 7  116.02555382

  8- 2- 9  114.93421732  10- 3-11  114.60470712

 NUCLEAR CHARGE:                   38
 NUMBER OF PRIMITIVE AOS:         177
 NUMBER OF SYMMETRY AOS:          172
 NUMBER OF CONTRACTIONS:          100   (   65A'  +   35A"  )
 NUMBER OF INNER CORE ORBITALS:     0   (    0A'  +    0A"  )
 NUMBER OF OUTER CORE ORBITALS:     5   (    5A'  +    0A"  )
 NUMBER OF VALENCE ORBITALS:       26   (   18A'  +    8A"  )


 NUCLEAR REPULSION ENERGY  161.45551786

 Eigenvalues of metric

         1 0.281E-02 0.391E-02 0.660E-02 0.132E-01 0.185E-01 0.272E-01 0.318E-01 0.397E-01
         2 0.147E-01 0.276E-01 0.340E-01 0.364E-01 0.398E-01 0.638E-01 0.101E+00 0.106E+00


 Contracted 2-electron integrals neglected if value below      1.0D-11
 AO integral compression algorithm  1   Integral accuracy      1.0D-11

     30.671 MB (compressed) written to integral file ( 51.9%)


 NUMBER OF SORTED TWO-ELECTRON INTEGRALS:    6554400.     BUFFER LENGTH:  32768
 NUMBER OF SEGMENTS:   1  SEGMENT LENGTH:    6554400      RECORD LENGTH: 524288

 Memory used in sort:       7.11 MW

 SORT1 READ     7409700. AND WROTE     6488005. INTEGRALS IN     19 RECORDS. CPU TIME:     0.10 SEC, REAL TIME:     0.22 SEC
 SORT2 READ     6488005. AND WROTE     6554400. INTEGRALS IN    117 RECORDS. CPU TIME:     0.19 SEC, REAL TIME:     0.21 SEC

 FILE SIZES:   FILE 1:    61.1 MBYTE,  FILE 4:    79.8 MBYTE,   TOTAL:    140.9 MBYTE

 OPERATOR DM      FOR CENTER  0  COORDINATES:    0.000000    0.000000    0.000000


 **********************************************************************************************************************************
 DATASETS  * FILE   NREC   LENGTH (MB)   RECORD NAMES
              1      19       54.96       500      610      700      900      950      970     1000      129      960     1100   
                                          VAR    BASINP    GEOM    SYMINP    ZMAT    AOBASIS   BASIS     P2S    ABASIS      S 
                                         1400     1410     1200     1210     1080     1600     1650     1300     1700   
                                           T        V       H0       H01     AOSYM     SMH    MOLCAS    ERIS     OPER   

 PROGRAMS   *        TOTAL       INT
 CPU TIMES  *         2.22      2.09
 REAL TIME  *         3.39 SEC
 DISK USED  *       134.85 MB
 **********************************************************************************************************************************


 Program * Restricted Hartree-Fock

 Orbital guess generated from atomic densities. Full valence occupancy:   23   8

 Initial occupancy:  15   4

 NELEC=   38   SYM=1   MS2= 0   THRE=1.0D-08   THRD=3.2D-06   THRG=3.2D-06  HFMA2=F  DIIS_START=2   DIIS_MAX=10   DIIS_INCORE=F

 Level shifts:    0.00 (CLOSED)    0.00 (OPEN)    0.30 (GAP_MIN)

 ITER           ETOT              DE          GRAD        DDIFF     DIIS  NEXP   TIME(IT)  TIME(TOT)  DIAG
   1     -225.74186792    -225.74186792     0.00D+00     0.15D+00     0     0       0.05      0.10    start
   2     -225.80479427      -0.06292635     0.92D-02     0.21D-01     1     0       0.05      0.15    diag
   3     -225.84167091      -0.03687664     0.66D-02     0.97D-02     2     0       0.05      0.20    diag
   4     -225.84352125      -0.00185034     0.11D-02     0.27D-02     3     0       0.05      0.25    diag
   5     -225.84402793      -0.00050668     0.67D-03     0.11D-02     4     0       0.06      0.31    diag
   6     -225.84415957      -0.00013164     0.22D-03     0.56D-03     5     0       0.05      0.36    diag
   7     -225.84421582      -0.00005624     0.11D-03     0.38D-03     6     0       0.05      0.41    diag
   8     -225.84424365      -0.00002783     0.68D-04     0.38D-03     7     0       0.04      0.45    fixocc
   9     -225.84424636      -0.00000271     0.21D-04     0.14D-03     8     0       0.05      0.50    diag
  10     -225.84424649      -0.00000013     0.67D-05     0.20D-04     9     0       0.06      0.56    diag/orth
  11     -225.84424652      -0.00000003     0.28D-05     0.10D-04     9     0       0.05      0.61    diag
  12     -225.84424652      -0.00000000     0.10D-05     0.35D-05     9     0       0.05      0.66    diag
  13     -225.84424652      -0.00000000     0.37D-06     0.13D-05     9     0       0.05      0.71    diag
  14     -225.84424652      -0.00000000     0.14D-06     0.33D-06     0     0       0.04      0.75    diag

 Final occupancy:  15   4

 !RHF STATE 1.1 Energy               -225.844246519894
  RHF One-electron energy            -624.653417758023
  RHF Two-electron energy             237.353653375759
  RHF Kinetic energy                  225.421329798467
  RHF Nuclear energy                  161.455517862370
  RHF Virial quotient                  -1.001876116700

 !RHF STATE 1.1 Dipole moment           0.20031984    -0.79985888     0.00000000
 Dipole moment /Debye                   0.50916225    -2.03303850     0.00000000

 Orbital energies:

           1.1          2.1          3.1          4.1          5.1          6.1          7.1          8.1          9.1         10.1
    -15.688126   -15.662338   -11.291110   -11.233046   -11.221423    -1.430129    -1.079096    -1.012873    -0.789339    -0.758293

          11.1         12.1         13.1         14.1         15.1         16.1         17.1
     -0.658070    -0.623497    -0.563188    -0.368413    -0.295089     0.129395     0.180613

           1.2          2.2          3.2          4.2          5.2          6.2
     -0.669310    -0.616037    -0.526529    -0.487159     0.145337     0.237320


 HOMO     15.1    -0.295089 =      -8.0298eV
 LUMO     16.1     0.129395 =       3.5210eV
 LUMO-HOMO         0.424483 =      11.5508eV

 Orbitals saved in record  2100.2


 **********************************************************************************************************************************
 DATASETS  * FILE   NREC   LENGTH (MB)   RECORD NAMES
              1      19       54.96       500      610      700      900      950      970     1000      129      960     1100   
                                          VAR    BASINP    GEOM    SYMINP    ZMAT    AOBASIS   BASIS     P2S    ABASIS      S 
                                         1400     1410     1200     1210     1080     1600     1650     1300     1700   
                                           T        V       H0       H01     AOSYM     SMH    MOLCAS    ERIS     OPER   

              2       4        0.64       700     1000      520     2100   
                                         GEOM     BASIS   MCVARS     RHF  

 PROGRAMS   *        TOTAL    HF-SCF       INT
 CPU TIMES  *         2.98      0.75      2.09
 REAL TIME  *         4.26 SEC
 DISK USED  *       134.85 MB
 **********************************************************************************************************************************


 PROGRAM * CCSD (Closed-shell coupled cluster)     Authors: C. Hampel, H.-J. Werner, 1991, M. Deegan, P.J. Knowles, 1992


 Convergence thresholds:  THRVAR = 1.00D-08  THRDEN = 1.00D-06

 CCSD(T)     terms to be evaluated (factor= 1.000)


 Number of core orbitals:           5 (   5   0 )
 Number of closed-shell orbitals:  14 (  10   4 )
 Number of external orbitals:      81 (  50  31 )

 Molecular orbitals read from record     2100.2  Type=RHF/CANONICAL  

 Number of N-1 electron functions:              14
 Number of N-2 electron functions:             105
 Number of singly external CSFs:               624
 Number of doubly external CSFs:            325305
 Total number of CSFs:                      325930

 Length of J-op  integral file:               0.00 MB
 Length of K-op  integral file:               0.44 MB
 Length of 3-ext integral record:             0.00 MB

 Memory could be reduced to 5.28 Mwords without degradation in triples

 Integral transformation finished. Total CPU:   0.35 sec, npass=  1  Memory used:   2.79 MW

 Reference energy:                   -225.84424652

 MP2 singlet pair energy:              -0.47956657
 MP2 triplet pair energy:              -0.30347126
 MP2 correlation energy:               -0.78303783
 MP2 total energy:                   -226.62728435

 SCS-MP2 correlation energy:           -0.76430645   (PS=  1.200000  PT=  0.333333)
 SCS-MP2 total energy:               -226.60855297

 ITER.      SQ.NORM     CORR.ENERGY   TOTAL ENERGY   ENERGY CHANGE        DEN1      VAR(S)    VAR(P)  DIIS     TIME  TIME/IT
   1      1.29389915    -0.80346624  -226.64771276    -0.02042841     0.00851891  0.47D-02  0.92D-02  1  1     4.41     0.87
   2      1.32107067    -0.80677689  -226.65102341    -0.00331065    -0.02530174  0.13D-03  0.12D-02  2  2     5.28     0.90
   3      1.33273331    -0.80709318  -226.65133970    -0.00031629    -0.00557705  0.65D-04  0.92D-04  3  3     6.14     0.92
   4      1.33735355    -0.80725320  -226.65149971    -0.00016002    -0.00140214  0.75D-05  0.14D-04  4  4     6.99     0.93
   5      1.33905706    -0.80727638  -226.65152290    -0.00002319    -0.00039773  0.22D-05  0.13D-05  5  5     7.85     0.94
   6      1.33949534    -0.80725581  -226.65150233     0.00002058    -0.00005374  0.47D-06  0.15D-06  6  6     8.72     0.94
   7      1.33960151    -0.80725740  -226.65150392    -0.00000160    -0.00000444  0.87D-07  0.39D-07  6  2     9.58     0.95
   8      1.33963921    -0.80725598  -226.65150250     0.00000142    -0.00000062  0.19D-07  0.64D-08  6  1    10.44     0.94
   9      1.33965479    -0.80725509  -226.65150161     0.00000089    -0.00000093  0.12D-08  0.13D-08  6  3    11.30     0.94
  10      1.33965163    -0.80725524  -226.65150176    -0.00000015     0.00000190  0.38D-09  0.15D-09  6  5    12.16     0.94

 Norm of t1 vector:      0.09797038      S-energy:    -0.00000029      T1 diagnostic:  0.01309184
                                                                       D1 diagnostic:  0.04121329
                                                                       D2 diagnostic:  0.20962054 (external, symmetry=1)

 Doubles amplitudes (print threshold =  0.500E-01):

         I         J         SYM. A    SYM. B    A         B      T(IJ, AB)

         9         9         1         1         1         1     -0.05155326
        10        10         1         1         1         1     -0.10294282
        13        13         2         2         1         1     -0.06388350


 Total CPU time for triples:      6.57 sec


 RESULTS
 =======

  Reference energy                   -225.844246519894
  CCSD singlet pair energy             -0.547905682658
  CCSD triplet pair energy             -0.259349266768
  CCSD correlation energy              -0.807255237789

  Triples (T) contribution             -0.036840491611
  Total correlation energy             -0.844095729399

  CCSD total energy                  -226.651501757682
  CCSD[T] energy                     -226.689643221712
  CCSD-T energy                      -226.687867710080
 !CCSD(T) total energy               -226.688342249293

 Timing summary (sec):

 STEP                 CPU(USER)    SYS     CPU(TOT)    WALL
 Transformation          0.37      0.06      0.43      0.72
 CCSD iterations        11.83      0.52     12.35      9.45
 Triples                 6.57      0.31      6.88      7.00

 Program statistics:

 Available memory in ccsd:               805305569
 Min. memory needed in ccsd:                903242
 Max. memory used in ccsd:                 1180131
 Max. memory used in cckext:               1290964 (10 integral passes)



 **********************************************************************************************************************************
 DATASETS  * FILE   NREC   LENGTH (MB)   RECORD NAMES
              1      20       75.67       500      610      700      900      950      970     1000      129      960     1100   
                                          VAR    BASINP    GEOM    SYMINP    ZMAT    AOBASIS   BASIS     P2S    ABASIS      S 
                                         1400     1410     1200     1210     1080     1600     1650     1300     1700     1380   
                                           T        V       H0       H01     AOSYM     SMH    MOLCAS    ERIS     OPER     JKOP   

              2       4        0.64       700     1000      520     2100   
                                         GEOM     BASIS   MCVARS     RHF  

 PROGRAMS   *        TOTAL   CCSD(T)    HF-SCF       INT
 CPU TIMES  *        18.58     15.60      0.75      2.09
 REAL TIME  *        21.47 SEC
 DISK USED  *       134.85 MB
 **********************************************************************************************************************************

 Dump information in style XML to xml output                                                                      

 Orbitals will not be exported.

 **********************************************************************************************************************************

 CCSD(T)/cc-pVDZ energy=   -226.688342249293

         CCSD(T)          HF-SCF
   -226.68834225   -225.84424652
 **********************************************************************************************************************************
 Molpro calculation terminated
