
 Working directory              : /home/jovyan/scratch/molpro.FRJkB0cw6I/
 Global scratch directory       : /home/jovyan/scratch/molpro.FRJkB0cw6I/
 Wavefunction directory         : /home/jovyan/wfu/
 Main file repository           : /home/jovyan/scratch/molpro.FRJkB0cw6I/

 id        : cardiff

 Nodes                nprocs
 jupyter-c-2efrancisan    1
 GA implementation: MPI file
 GA implementation (serial work in mppx): MPI file

 Using customized tuning parameters: mindgm=1; mindgv=20; mindgc=4; mindgr=1; noblas=0; minvec=7
 default implementation of scratch files=df  


 Variables initialized (1031), CPU time= 0.00 sec
 
 
 
 geometry={
 7
  C 0.000000 0.000000 0.523306
  H 0.000000 0.000000 1.609625
  N 0.000000 1.054818 -0.264887
  H -0.314690 1.964618 0.041770
  H 0.000000 0.000000 -1.124591
  N 0.000000 -1.054818 -0.264887
  H 0.314690 -1.964618 0.041770
 }
 basis=cc-pVTZ
 angstrom
 
 
 hf; papt;mp4
 
 
 
 {put,xml;noorbitals,nobasis}
 Commands initialized (841), CPU time= 0.01 sec, 704 directives.
 Default parameters read. Elapsed time= 0.08 sec

 Checking input...
 Passed
1


                                         ***  PROGRAM SYSTEM MOLPRO  ***
                                       Copyright, TTI GmbH Stuttgart, 2015
                                    Version 2023.1 linked Mon Jun  5 13:27:10 2023


 **********************************************************************************************************************************
 LABEL *                                                                                                                                                                 
  (16 PROC) 64 bit serial version                                                        DATE: 02-Aug-23          TIME: 15:46:17  
 **********************************************************************************************************************************

 SHA1:             9738a14712571edd23541b6d7c4f3a3d766f8287
 **********************************************************************************************************************************

 Memory per process:       805 MW
 Total memory per node:   1074 MW
 Total GA space:           268 MW

 GA preallocation disabled
 GA check enabled

 Geometry recognized as XYZ


 Variable memory set to 805.3 MW

 SETTING BASIS          =    CC-PVTZ


 Recomputing integrals since basis changed


 Using spherical harmonics

 Library entry C      S cc-pVTZ              selected for orbital group  1
 Library entry C      P cc-pVTZ              selected for orbital group  1
 Library entry C      D cc-pVTZ              selected for orbital group  1
 Library entry C      F cc-pVTZ              selected for orbital group  1
 Library entry H      S cc-pVTZ              selected for orbital group  2
 Library entry H      P cc-pVTZ              selected for orbital group  2
 Library entry H      D cc-pVTZ              selected for orbital group  2
 Library entry N      S cc-pVTZ              selected for orbital group  3
 Library entry N      P cc-pVTZ              selected for orbital group  3
 Library entry N      D cc-pVTZ              selected for orbital group  3
 Library entry N      F cc-pVTZ              selected for orbital group  3


 PROGRAM * SEWARD (Integral evaluation for generally contracted gaussian basis sets)     Author: Roland Lindh, 1990

 Geometry written to block  1 of record 700


 Point group  C2  



 ATOMIC COORDINATES

 NR  ATOM    CHARGE       X              Y              Z

   1  C       6.00    0.000000000    0.000000000    0.988905019
   2  H       1.00    0.000000000    0.000000000    3.041750413
   3  N       7.00    0.000000000    1.993317131   -0.500563884
   4  N       7.00    0.000000000   -1.993317131   -0.500563884
   5  H       1.00   -0.594677914    3.712589960    0.078933860
   6  H       1.00    0.594677914   -3.712589960    0.078933860
   7  H       1.00    0.000000000    0.000000000   -2.125168992

 Bond lengths in Bohr (Angstrom)

 1-2  2.052845394  1-3  2.488338964  1-4  2.488338964  3-5  1.909282199  3-7  2.571508301
     ( 1.086319000)     ( 1.316772273)     ( 1.316772273)     ( 1.010348629)     ( 1.360783591)

 4-6  1.909282199  4-7  2.571508301
     ( 1.010348629)     ( 1.360783591)

 Bond angles

  1-3-5  122.66077070   1-3-7   75.94916157   1-4-6  122.66077070   1-4-7   75.94916157

  2-1-3  126.76823547   2-1-4  126.76823547   3-1-4  106.46352905   3-7-4  101.63814782

  5-3-7  152.84374691   6-4-7  152.84374691

 NUCLEAR CHARGE:                   24
 NUMBER OF PRIMITIVE AOS:         209
 NUMBER OF SYMMETRY AOS:          190
 NUMBER OF CONTRACTIONS:          146   (   76A   +   70B   )
 NUMBER OF INNER CORE ORBITALS:     0   (    0A   +    0B   )
 NUMBER OF OUTER CORE ORBITALS:     3   (    2A   +    1B   )
 NUMBER OF VALENCE ORBITALS:       16   (    9A   +    7B   )


 NUCLEAR REPULSION ENERGY   73.85249191


 Eigenvalues of metric

         1 0.793E-03 0.137E-02 0.202E-02 0.235E-02 0.394E-02 0.627E-02 0.710E-02 0.109E-01
         2 0.182E-02 0.244E-02 0.305E-02 0.732E-02 0.147E-01 0.219E-01 0.246E-01 0.291E-01


 Contracted 2-electron integrals neglected if value below      1.0D-11
 AO integral compression algorithm  1   Integral accuracy      1.0D-11

     120.324 MB (compressed) written to integral file ( 41.5%)


 NUMBER OF SORTED TWO-ELECTRON INTEGRALS:   29184386.     BUFFER LENGTH:  32768
 NUMBER OF SEGMENTS:   2  SEGMENT LENGTH:   15999830      RECORD LENGTH: 524288

 Memory used in sort:      16.56 MW

 SORT1 READ    36176170. AND WROTE    22723612. INTEGRALS IN     66 RECORDS. CPU TIME:     0.44 SEC, REAL TIME:     1.00 SEC
 SORT2 READ    22723612. AND WROTE    29184386. INTEGRALS IN    459 RECORDS. CPU TIME:     0.71 SEC, REAL TIME:     0.89 SEC

 FILE SIZES:   FILE 1:   151.0 MBYTE,  FILE 4:   276.9 MBYTE,   TOTAL:    427.9 MBYTE

 OPERATOR DM      FOR CENTER  0  COORDINATES:    0.000000    0.000000    0.000000


 **********************************************************************************************************************************
 DATASETS  * FILE   NREC   LENGTH (MB)   RECORD NAMES
              1      19      125.09       500      610      700      900      950      970     1000      129      960     1100   
                                          VAR    BASINP    GEOM    SYMINP    ZMAT    AOBASIS   BASIS     P2S    ABASIS      S 
                                         1400     1410     1200     1210     1080     1600     1650     1300     1700   
                                           T        V       H0       H01     AOSYM     SMH    MOLCAS    ERIS     OPER   

 PROGRAMS   *        TOTAL       INT
 CPU TIMES  *         4.86      4.72
 REAL TIME  *         7.37 SEC
 DISK USED  *       408.49 MB
 **********************************************************************************************************************************


 Program * Restricted Hartree-Fock

 Orbital guess generated from atomic densities. Full valence occupancy:   11   8

 Initial occupancy:   7   5

 NELEC=   24   SYM=1   MS2= 0   THRE=1.0D-08   THRD=3.2D-06   THRG=3.2D-06  HFMA2=F  DIIS_START=2   DIIS_MAX=10   DIIS_INCORE=F

 Level shifts:    0.00 (CLOSED)    0.00 (OPEN)    0.30 (GAP_MIN)

 ITER           ETOT              DE          GRAD        DDIFF     DIIS  NEXP   TIME(IT)  TIME(TOT)  DIAG
   1     -149.00336945    -149.00336945     0.00D+00     0.87D-01     0     0       0.19      0.38    start
   2     -149.03479233      -0.03142287     0.69D-02     0.99D-02     1     0       0.20      0.58    diag
   3     -149.04251568      -0.00772335     0.33D-02     0.32D-02     2     0       0.19      0.77    diag
   4     -149.04328331      -0.00076763     0.82D-03     0.11D-02     3     0       0.19      0.96    diag
   5     -149.04332926      -0.00004596     0.14D-03     0.24D-03     4     0       0.19      1.15    diag
   6     -149.04333588      -0.00000662     0.62D-04     0.98D-04     5     0       0.20      1.35    diag
   7     -149.04333679      -0.00000090     0.19D-04     0.38D-04     6     0       0.20      1.55    diag
   8     -149.04333684      -0.00000005     0.47D-05     0.11D-04     7     0       0.19      1.74    fixocc
   9     -149.04333684      -0.00000000     0.98D-06     0.25D-05     8     0       0.19      1.93    diag
  10     -149.04333684      -0.00000000     0.27D-06     0.33D-06     0     0       0.19      2.12    diag/orth

 Final occupancy:   7   5

 !RHF STATE 1.1 Energy               -149.043336838113
  RHF One-electron energy            -348.226336242801
  RHF Two-electron energy             125.330507497235
  RHF Kinetic energy                  148.802142738684
  RHF Nuclear energy                   73.852491907452
  RHF Virial quotient                  -1.001620904746

 !RHF STATE 1.1 Dipole moment           0.00000000     0.00000000     0.83831030
 Dipole moment /Debye                   0.00000000     0.00000000     2.13077225

 Orbital energies:

           1.1          2.1          3.1          4.1          5.1          6.1          7.1          8.1          9.1
    -15.535367   -11.322603    -1.274980    -0.807829    -0.770088    -0.510492    -0.349730     0.145781     0.177714

           1.2          2.2          3.2          4.2          5.2          6.2          7.2
    -15.535412    -1.094982    -0.626548    -0.525876    -0.428759     0.167979     0.177667


 HOMO      7.1    -0.349730 =      -9.5166eV
 LUMO      8.1     0.145781 =       3.9669eV
 LUMO-HOMO         0.495511 =      13.4835eV

 Orbitals saved in record  2100.2


 **********************************************************************************************************************************
 DATASETS  * FILE   NREC   LENGTH (MB)   RECORD NAMES
              1      19      125.09       500      610      700      900      950      970     1000      129      960     1100   
                                          VAR    BASINP    GEOM    SYMINP    ZMAT    AOBASIS   BASIS     P2S    ABASIS      S 
                                         1400     1410     1200     1210     1080     1600     1650     1300     1700   
                                           T        V       H0       H01     AOSYM     SMH    MOLCAS    ERIS     OPER   

              2       4        0.66       700     1000      520     2100   
                                         GEOM     BASIS   MCVARS     RHF  

 PROGRAMS   *        TOTAL    HF-SCF       INT
 CPU TIMES  *         6.98      2.12      4.72
 REAL TIME  *        10.24 SEC
 DISK USED  *       408.49 MB
 **********************************************************************************************************************************


 PROGRAM * PAPT (Closed-shell)     Authors: C. Hampel, H.-J. Werner, 1991, P.J. Knowles, 2021


 Convergence thresholds:  THRVAR = 1.00D-08  THRDEN = 1.00D-06

 Number of core orbitals:           3 (   2   1 )
 Number of closed-shell orbitals:   9 (   5   4 )
 Number of external orbitals:     134 (  69  65 )

 Molecular orbitals read from record     2100.2  Type=RHF/CANONICAL  

 Number of N-1 electron functions:               9
 Number of N-2 electron functions:              45
 Number of singly external CSFs:               605
 Number of doubly external CSFs:            364216
 Total number of CSFs:                      364822

 Length of J-op  integral file:               0.00 MB
 Length of K-op  integral file:               0.80 MB

 Integral transformation finished. Total CPU:   0.42 sec, npass=  1  Memory used:   0.70 MW

 Reference energy:                   -149.04333684

                        CORR.ENERGY   TOTAL ENERGY   ENERGY CHANGE
 MP2:                   -0.60587545  -149.64921228    -0.60587545

 SCS-MP2 correlation energy:           -0.59541915   (PS=  1.200000  PT=  0.333333)
 SCS-MP2 total energy:               -149.63875599
 Iteration:   1     0.2219D+00
 Iteration:   2     0.3555D+00
 Iteration:   3     0.5865D-01
 Iteration:   4     0.6324D-01
 Iteration:   5     0.2628D-01
 Iteration:   6     0.1766D-01
 Iteration:   7     0.1483D-01
 Iteration:   8     0.4089D-02
 Iteration:   9     0.2575D-01
 Iteration:  10     0.1281D-02
 Iteration:  11     0.1781D-02
 Iteration:  12     0.5946D-03
 Iteration:  13     0.2549D-03
 Iteration:  14     0.1660D-02
 Iteration:  15     0.9570D-04
 PAPT operator written to  7000.1
 PAPT orbitals and eigenvalues written to  7000.2

 MP3(D):                -0.61184283  -149.65517966    -0.00596738



 RESULTS
 =======

  Reference energy                   -149.043336838113
  MP3 singlet pair energy              -0.405282103197
  MP3 triplet pair energy              -0.206560723184
  MP3 correlation energy               -0.611842826381

 !MP3 total energy                   -149.655179664494

 Timing summary (sec):

 STEP                 CPU(USER)    SYS     CPU(TOT)    WALL
 Transformation          0.44      0.04      0.48      0.69
 CCSD iterations         8.87      0.07      8.94      2.88

 Program statistics:

 Available memory in ccsd:               805306037
 Min. memory needed in ccsd:               1057027
 Max. memory used in ccsd:                 1365742
 Max. memory used in cckext:               1459129 ( 1 integral passes)



 **********************************************************************************************************************************
 DATASETS  * FILE   NREC   LENGTH (MB)   RECORD NAMES
              1      21      130.80       500      610      700      900      950      970     1000      129      960     1100   
                                          VAR    BASINP    GEOM    SYMINP    ZMAT    AOBASIS   BASIS     P2S    ABASIS      S 
                                         1400     1410     1200     1210     1080     1600     1650     1300     1700     1380   
                                           T        V       H0       H01     AOSYM     SMH    MOLCAS    ERIS     OPER     JKOP   
                                         7000   
                                        PAPT AO    

              2       5        1.01       700     1000      520     2100     7000   
                                         GEOM     BASIS   MCVARS     RHF     PAPT   

 PROGRAMS   *        TOTAL      PAPT    HF-SCF       INT
 CPU TIMES  *         9.01      2.03      2.12      4.72
 REAL TIME  *        13.96 SEC
 DISK USED  *       408.49 MB
 **********************************************************************************************************************************


 PROGRAM * MP4 (Closed-shell)     Authors: C. Hampel, H.-J. Werner, 1991, M. Deegan, P.J. Knowles, 1992


 Convergence thresholds:  THRVAR = 1.00D-08  THRDEN = 1.00D-06

 MP4(T)     terms to be evaluated (factor= 0.000)


 Number of core orbitals:           3 (   2   1 )
 Number of closed-shell orbitals:   9 (   5   4 )
 Number of external orbitals:     134 (  69  65 )

 Molecular orbitals read from record     7000.2  Type=PAPT/CANONICAL (state 1.1)

 Number of N-1 electron functions:               9
 Number of N-2 electron functions:              45
 Number of singly external CSFs:               605
 Number of doubly external CSFs:            364216
 Total number of CSFs:                      364822

 Length of J-op  integral file:               0.00 MB
 Length of K-op  integral file:               0.80 MB

 Memory could be reduced to 14.29 Mwords without degradation in triples

 Integral transformation finished. Total CPU:   1.29 sec, npass=  1  Memory used:   6.31 MW
 Orbital energies read from record       7000.2  Type=PAPT/CANONICAL (state 1.1)

 Reference energy:                   -149.04333684

                        CORR.ENERGY   TOTAL ENERGY   ENERGY CHANGE
 MP2:                   -0.61682385  -149.66016069    -0.61682385

 SCS-MP2 correlation energy:           -0.60893373   (PS=  1.200000  PT=  0.333333)
 SCS-MP2 total energy:               -149.65227057

 MP3(D):                -0.61697629  -149.66031313    -0.00015244
 MP4(DQ):               -0.60901418  -149.65235102     0.00796210
 MP4(SDQ):              -0.61549612  -149.65883296    -0.00648194

 Norm of t1 vector:      0.07474857      S-energy:    -0.00648194      T1 diagnostic:  0.01245809

 Largest off-diagonal element in interal  block of Fock matrix:  0.14D+00
 Largest off-diagonal element in external block of Fock matrix:  0.25D+00


 Total CPU time for triples:     14.32 sec


 RESULTS
 =======

  Reference energy                   -149.043336838113
  MP4(SDQ) singlet pair energy         -0.402883818516
  MP4(SDQ) triplet pair energy         -0.206130365015
  MP4(SDQ) correlation energy          -0.615496122437

  Triples contribution                 -0.032701322069
  Total correlation energy             -0.648197444506

  MP4(SDQ) total energy              -149.658832960550
 !MP4(SDTQ) total energy             -149.691534282619

 Timing summary (sec):

 STEP                 CPU(USER)    SYS     CPU(TOT)    WALL
 Transformation          1.51      0.14      1.65      2.36
 CCSD iterations        10.51      0.05     10.56      1.29
 Triples                14.32      0.63     14.95     15.64

 Program statistics:

 Available memory in ccsd:               805306037
 Min. memory needed in ccsd:               1057027
 Max. memory used in ccsd:                 1365742
 Max. memory used in cckext:               1459129 ( 1 integral passes)



 **********************************************************************************************************************************
 DATASETS  * FILE   NREC   LENGTH (MB)   RECORD NAMES
              1      22      172.42       500      610      700      900      950      970     1000      129      960     1100   
                                          VAR    BASINP    GEOM    SYMINP    ZMAT    AOBASIS   BASIS     P2S    ABASIS      S 
                                         1400     1410     1200     1210     1080     1600     1650     1300     1700     1380   
                                           T        V       H0       H01     AOSYM     SMH    MOLCAS    ERIS     OPER     JKOP   
                                         7000     1380(1)
                                        PAPT AO   JKOP   

              2       5        1.01       700     1000      520     2100     7000   
                                         GEOM     BASIS   MCVARS     RHF     PAPT   

 PROGRAMS   *        TOTAL       MP4      PAPT    HF-SCF       INT
 CPU TIMES  *        26.04     17.03      2.03      2.12      4.72
 REAL TIME  *        33.34 SEC
 DISK USED  *       408.49 MB
 **********************************************************************************************************************************

 Dump information in style XML to xml output                                                                      

 Orbitals will not be exported.

 **********************************************************************************************************************************

 MP4/cc-pVTZ energy=   -149.691534282619

             MP4            PAPT          HF-SCF
   -149.69153428   -149.65517966   -149.04333684
 **********************************************************************************************************************************
 Molpro calculation terminated
