
 Working directory              : /home/jovyan/scratch/molpro.ywZj2UM7mc/
 Global scratch directory       : /home/jovyan/scratch/molpro.ywZj2UM7mc/
 Wavefunction directory         : /home/jovyan/wfu/
 Main file repository           : /home/jovyan/scratch/molpro.ywZj2UM7mc/

 id        : cardiff

 Nodes                nprocs
 jupyter-c-2efrancisan    1
 GA implementation: MPI file
 GA implementation (serial work in mppx): MPI file

 Using customized tuning parameters: mindgm=1; mindgv=20; mindgc=4; mindgr=1; noblas=0; minvec=7
 default implementation of scratch files=df  


 Variables initialized (1031), CPU time= 0.01 sec
 
 
 
 geometry={
 8
  4HF (cyc) (Full point group C4h)
  H -0.302062 1.405585 0.000000
  H 1.405585 0.302062 0.000000
  H 0.302062 -1.405585 0.000000
  H -1.405585 -0.302062 0.000000
  F 1.249541 1.249541 0.000000
  F -1.249541 1.249541 0.000000
  F 1.249541 -1.249541 0.000000
  F -1.249541 -1.249541 0.000000
 }
 basis=cc-pVDZ
 angstrom
 
 
 hf
 
 
 
 {put,xml;noorbitals,nobasis}
 Commands initialized (841), CPU time= 0.01 sec, 704 directives.
 Default parameters read. Elapsed time= 0.08 sec

 Checking input...
 Passed
1


                                         ***  PROGRAM SYSTEM MOLPRO  ***
                                       Copyright, TTI GmbH Stuttgart, 2015
                                    Version 2023.1 linked Mon Jun  5 13:27:10 2023


 **********************************************************************************************************************************
 LABEL *                                                                                                                                                                 
  (16 PROC) 64 bit serial version                                                        DATE: 03-Aug-23          TIME: 12:32:33  
 **********************************************************************************************************************************

 SHA1:             9738a14712571edd23541b6d7c4f3a3d766f8287
 **********************************************************************************************************************************

 Memory per process:       805 MW
 Total memory per node:   1074 MW
 Total GA space:           268 MW

 GA preallocation disabled
 GA check enabled

 Geometry recognized as XYZ


 Variable memory set to 805.3 MW

 SETTING BASIS          =    CC-PVDZ


 Recomputing integrals since basis changed


 Using spherical harmonics

 Library entry H      S cc-pVDZ              selected for orbital group  1
 Library entry H      P cc-pVDZ              selected for orbital group  1
 Library entry F      S cc-pVDZ              selected for orbital group  2
 Library entry F      P cc-pVDZ              selected for orbital group  2
 Library entry F      D cc-pVDZ              selected for orbital group  2


 PROGRAM * SEWARD (Integral evaluation for generally contracted gaussian basis sets)     Author: Roland Lindh, 1990

 Geometry written to block  1 of record 700


 Point group  C2h 



 ATOMIC COORDINATES

 NR  ATOM    CHARGE       X              Y              Z

   1  H       1.00   -0.570814453    2.656170695    0.000000000
   2  H       1.00    0.570814453   -2.656170695    0.000000000
   3  H       1.00    2.656170695    0.570814453    0.000000000
   4  H       1.00   -2.656170695   -0.570814453    0.000000000
   5  F       9.00    2.361290271    2.361290271    0.000000000
   6  F       9.00   -2.361290271   -2.361290271    0.000000000
   7  F       9.00   -2.361290271    2.361290271    0.000000000
   8  F       9.00    2.361290271   -2.361290271    0.000000000

 Bond lengths in Bohr (Angstrom)

 1-7  1.814595856  2-8  1.814595856  3-5  1.814595856  4-6  1.814595856
     ( 0.960242774)     ( 0.960242774)     ( 0.960242774)     ( 0.960242774)

 NUCLEAR CHARGE:                   40
 NUMBER OF PRIMITIVE AOS:         136
 NUMBER OF SYMMETRY AOS:          132
 NUMBER OF CONTRACTIONS:           76   (   28Ag  +   10Au  +   28Bu  +   10Bg  )
 NUMBER OF INNER CORE ORBITALS:     0   (    0Ag  +    0Au  +    0Bu  +    0Bg  )
 NUMBER OF OUTER CORE ORBITALS:     4   (    2Ag  +    0Au  +    2Bu  +    0Bg  )
 NUMBER OF VALENCE ORBITALS:       20   (    8Ag  +    2Au  +    8Bu  +    2Bg  )


 NUCLEAR REPULSION ENERGY  139.27949071


 Eigenvalues of metric

         1 0.217E-01 0.237E-01 0.498E-01 0.528E-01 0.914E-01 0.152E+00 0.171E+00 0.189E+00
         2 0.187E+00 0.194E+00 0.620E+00 0.698E+00 0.100E+01 0.100E+01 0.109E+01 0.115E+01
         3 0.221E-01 0.221E-01 0.478E-01 0.478E-01 0.136E+00 0.136E+00 0.180E+00 0.180E+00
         4 0.191E+00 0.191E+00 0.657E+00 0.657E+00 0.100E+01 0.100E+01 0.111E+01 0.111E+01


 Contracted 2-electron integrals neglected if value below      1.0D-11
 AO integral compression algorithm  1   Integral accuracy      1.0D-11

     6.816 MB (compressed) written to integral file ( 51.4%)


 NUMBER OF SORTED TWO-ELECTRON INTEGRALS:    1175065.     BUFFER LENGTH:  32768
 NUMBER OF SEGMENTS:   1  SEGMENT LENGTH:    1175065      RECORD LENGTH: 524288

 Memory used in sort:       1.73 MW

 SORT1 READ     1595856. AND WROTE     1143375. INTEGRALS IN      4 RECORDS. CPU TIME:     0.03 SEC, REAL TIME:     0.08 SEC
 SORT2 READ     1143375. AND WROTE     1175065. INTEGRALS IN     26 RECORDS. CPU TIME:     0.08 SEC, REAL TIME:     0.08 SEC

 FILE SIZES:   FILE 1:    37.1 MBYTE,  FILE 4:    16.8 MBYTE,   TOTAL:     53.9 MBYTE

 OPERATOR DM      FOR CENTER  0  COORDINATES:    0.000000    0.000000    0.000000


 **********************************************************************************************************************************
 DATASETS  * FILE   NREC   LENGTH (MB)   RECORD NAMES
              1      19       33.54       500      610      700      900      950      970     1000      129      960     1100   
                                          VAR    BASINP    GEOM    SYMINP    ZMAT    AOBASIS   BASIS     P2S    ABASIS      S 
                                         1400     1410     1200     1210     1080     1600     1650     1300     1700   
                                           T        V       H0       H01     AOSYM     SMH    MOLCAS    ERIS     OPER   

 PROGRAMS   *        TOTAL       INT
 CPU TIMES  *         0.99      0.86
 REAL TIME  *         2.13 SEC
 DISK USED  *        51.87 MB
 **********************************************************************************************************************************


 Program * Restricted Hartree-Fock

 Orbital guess generated from atomic densities. Full valence occupancy:   10   2  10   2

 Initial occupancy:   8   2   8   2

 NELEC=   40   SYM=1   MS2= 0   THRE=1.0D-08   THRD=3.2D-06   THRG=3.2D-06  HFMA2=F  DIIS_START=2   DIIS_MAX=10   DIIS_INCORE=F

 Level shifts:    0.00 (CLOSED)    0.00 (OPEN)    0.30 (GAP_MIN)

 ITER           ETOT              DE          GRAD        DDIFF     DIIS  NEXP   TIME(IT)  TIME(TOT)  DIAG
   1     -400.05422448    -400.05422448     0.00D+00     0.28D+00     0     0       0.01      0.02    start
   2     -400.10967776      -0.05545329     0.16D-01     0.33D-01     1     0       0.01      0.03    diag
   3     -400.12047396      -0.01079620     0.73D-02     0.94D-02     2     0       0.00      0.03    diag
   4     -400.12095001      -0.00047605     0.11D-02     0.23D-02     3     0       0.01      0.04    diag
   5     -400.12100743      -0.00005742     0.29D-03     0.80D-03     4     0       0.01      0.05    diag
   6     -400.12101297      -0.00000554     0.78D-04     0.23D-03     5     0       0.01      0.06    diag
   7     -400.12101306      -0.00000009     0.10D-04     0.29D-04     6     0       0.01      0.07    diag
   8     -400.12101306      -0.00000000     0.11D-05     0.26D-05     7     0       0.01      0.08    fixocc
   9     -400.12101306      -0.00000000     0.23D-06     0.37D-06     0     0       0.01      0.09    diag

 Final occupancy:   8   2   8   2

 !RHF STATE 1.1 Energy               -400.121013056205
  RHF One-electron energy            -838.141479554519
  RHF Two-electron energy             298.740975789036
  RHF Kinetic energy                  399.961463163983
  RHF Nuclear energy                  139.279490709279
  RHF Virial quotient                  -1.000398913163

 !RHF STATE 1.1 Dipole moment           0.00000000     0.00000000     0.00000000
 Dipole moment /Debye                   0.00000000     0.00000000     0.00000000

 Orbital energies:

           1.1          2.1          3.1          4.1          5.1          6.1          7.1          8.1          9.1         10.1
    -26.320653   -26.320644    -1.643635    -1.601746    -0.837225    -0.779571    -0.666668    -0.650894     0.194890     0.374119

           1.2          2.2          3.2          4.2
     -0.685003    -0.661917     1.254088     1.426420

           1.3          2.3          3.3          4.3          5.3          6.3          7.3          8.3          9.3         10.3
    -26.320650   -26.320650    -1.622706    -1.622706    -0.800794    -0.800794    -0.663573    -0.663573     0.296056     0.296056

           1.4          2.4          3.4          4.4
     -0.673179    -0.673179     1.310426     1.310426


 HOMO      8.1    -0.650894 =     -17.7117eV
 LUMO      9.1     0.194890 =       5.3032eV
 LUMO-HOMO         0.845784 =      23.0150eV

 Orbitals saved in record  2100.2


 **********************************************************************************************************************************
 DATASETS  * FILE   NREC   LENGTH (MB)   RECORD NAMES
              1      19       33.54       500      610      700      900      950      970     1000      129      960     1100   
                                          VAR    BASINP    GEOM    SYMINP    ZMAT    AOBASIS   BASIS     P2S    ABASIS      S 
                                         1400     1410     1200     1210     1080     1600     1650     1300     1700   
                                           T        V       H0       H01     AOSYM     SMH    MOLCAS    ERIS     OPER   

              2       4        0.53       700     1000      520     2100   
                                         GEOM     BASIS   MCVARS     RHF  

 PROGRAMS   *        TOTAL    HF-SCF       INT
 CPU TIMES  *         1.08      0.09      0.86
 REAL TIME  *         2.27 SEC
 DISK USED  *        51.87 MB
 **********************************************************************************************************************************

 Dump information in style XML to xml output                                                                      

 Orbitals will not be exported.

 **********************************************************************************************************************************

 HF/cc-pVDZ energy=   -400.121013056205

          HF-SCF
   -400.12101306
 **********************************************************************************************************************************
 Molpro calculation terminated
