
 Working directory              : /home/jovyan/scratch/molpro.4Mxdj9LmaW/
 Global scratch directory       : /home/jovyan/scratch/molpro.4Mxdj9LmaW/
 Wavefunction directory         : /home/jovyan/wfu/
 Main file repository           : /home/jovyan/scratch/molpro.4Mxdj9LmaW/

 id        : cardiff

 Nodes                nprocs
 jupyter-c-2efrancisan    1
 GA implementation: MPI file
 GA implementation (serial work in mppx): MPI file

 Using customized tuning parameters: mindgm=1; mindgv=20; mindgc=4; mindgr=1; noblas=0; minvec=7
 default implementation of scratch files=df  


 Variables initialized (1031), CPU time= 0.00 sec
 
 
 
 geometry={
           10
     C          0.93577667      0.39537143      0.00000000
     C          0.85196601     -0.96841085      0.00000000
     O         -1.50506259     -1.24340628      0.00000000
     N         -1.72883338     -0.04590722      0.00000000
     C         -1.16713640      1.02284528      0.00000000
     H          1.15273844      0.92694986      0.92000024
     H          1.15273844      0.92694986     -0.92000024
     H          0.87762775     -1.53660420      0.92009471
     H          0.87762775     -1.53660420     -0.92009471
     H         -1.44744268      2.05881632      0.00000000
 }
 basis=cc-pVTZ
 angstrom
 
 
 hf; papt;mp4
 
 
 
 {put,xml;noorbitals,nobasis}
 Commands initialized (841), CPU time= 0.01 sec, 704 directives.
 Default parameters read. Elapsed time= 0.08 sec

 Checking input...
 Passed
1


                                         ***  PROGRAM SYSTEM MOLPRO  ***
                                       Copyright, TTI GmbH Stuttgart, 2015
                                    Version 2023.1 linked Mon Jun  5 13:27:10 2023


 **********************************************************************************************************************************
 LABEL *                                                                                                                                                                 
  (16 PROC) 64 bit serial version                                                        DATE: 03-Aug-23          TIME: 11:17:16  
 **********************************************************************************************************************************

 SHA1:             9738a14712571edd23541b6d7c4f3a3d766f8287
 **********************************************************************************************************************************

 Memory per process:       805 MW
 Total memory per node:   1074 MW
 Total GA space:           268 MW

 GA preallocation disabled
 GA check enabled

 Geometry recognized as XYZ


 Variable memory set to 805.3 MW

 SETTING BASIS          =    CC-PVTZ


 Recomputing integrals since basis changed


 Using spherical harmonics

 Library entry C      S cc-pVTZ              selected for orbital group  1
 Library entry C      P cc-pVTZ              selected for orbital group  1
 Library entry C      D cc-pVTZ              selected for orbital group  1
 Library entry C      F cc-pVTZ              selected for orbital group  1
 Library entry O      S cc-pVTZ              selected for orbital group  2
 Library entry O      P cc-pVTZ              selected for orbital group  2
 Library entry O      D cc-pVTZ              selected for orbital group  2
 Library entry O      F cc-pVTZ              selected for orbital group  2
 Library entry N      S cc-pVTZ              selected for orbital group  3
 Library entry N      P cc-pVTZ              selected for orbital group  3
 Library entry N      D cc-pVTZ              selected for orbital group  3
 Library entry N      F cc-pVTZ              selected for orbital group  3
 Library entry H      S cc-pVTZ              selected for orbital group  5
 Library entry H      P cc-pVTZ              selected for orbital group  5
 Library entry H      D cc-pVTZ              selected for orbital group  5


 PROGRAM * SEWARD (Integral evaluation for generally contracted gaussian basis sets)     Author: Roland Lindh, 1990

 Geometry written to block  1 of record 700


 Point group  Cs  



 ATOMIC COORDINATES

 NR  ATOM    CHARGE       X              Y              Z

   1  C       6.00    1.768361620    0.747143720    0.000000000
   2  C       6.00    1.609982426   -1.830031283    0.000000000
   3  O       8.00   -2.844156096   -2.349697331    0.000000000
   4  N       7.00   -3.267021603   -0.086752073    0.000000000
   5  C       6.00   -2.205568146    1.932897447    0.000000000
   6  H       1.00    2.178359945    1.751681367    1.738548488
   7  H       1.00    2.178359945    1.751681367   -1.738548488
   8  H       1.00    1.658476087   -2.903761100    1.738727011
   9  H       1.00    1.658476087   -2.903761100   -1.738727011
  10  H       1.00   -2.735270246    3.890598986    0.000000000

 Bond lengths in Bohr (Angstrom)

 1-2  2.582036980  1-6  2.049328025  1-7  2.049328025  2-8  2.044118141  2-9  2.044118141
     ( 1.366355127)     ( 1.084457689)     ( 1.084457689)     ( 1.081700736)     ( 1.081700736)

  3- 4  2.302115653   4- 5  2.281593221   5-10  2.028097539
       ( 1.218227140)       ( 1.207367137)       ( 1.073222999)

 Bond angles

  1-2-8  121.52250959   1-2-9  121.52250959   2-1-6  120.10112852   2-1-7  120.10112852

  3- 4- 5  141.69072663   4- 5-10  137.13504101   6- 1- 7  116.06542625   8- 2- 9  116.55399035

 NUCLEAR CHARGE:                   38
 NUMBER OF PRIMITIVE AOS:         320
 NUMBER OF SYMMETRY AOS:          290
 NUMBER OF CONTRACTIONS:          220   (  138A'  +   82A"  )
 NUMBER OF INNER CORE ORBITALS:     0   (    0A'  +    0A"  )
 NUMBER OF OUTER CORE ORBITALS:     5   (    5A'  +    0A"  )
 NUMBER OF VALENCE ORBITALS:       25   (   18A'  +    7A"  )


 NUCLEAR REPULSION ENERGY  161.14848520


 Eigenvalues of metric

         1 0.415E-03 0.105E-02 0.131E-02 0.138E-02 0.144E-02 0.160E-02 0.182E-02 0.268E-02
         2 0.913E-03 0.185E-02 0.399E-02 0.925E-02 0.968E-02 0.128E-01 0.200E-01 0.270E-01


 Contracted 2-electron integrals neglected if value below      1.0D-11
 AO integral compression algorithm  1   Integral accuracy      1.0D-11

     573.309 MB (compressed) written to integral file ( 43.3%)


 NUMBER OF SORTED TWO-ELECTRON INTEGRALS:  149704861.     BUFFER LENGTH:  32768
 NUMBER OF SEGMENTS:  10  SEGMENT LENGTH:   15999437      RECORD LENGTH: 524288

 Memory used in sort:      16.56 MW

 SORT1 READ   165541656. AND WROTE   137477157. INTEGRALS IN    397 RECORDS. CPU TIME:     2.62 SEC, REAL TIME:     3.60 SEC
 SORT2 READ   137477157. AND WROTE   149704861. INTEGRALS IN   2187 RECORDS. CPU TIME:     2.92 SEC, REAL TIME:     3.53 SEC

 FILE SIZES:   FILE 1:   604.8 MBYTE,  FILE 4:  1665.2 MBYTE,   TOTAL:   2270.0 MBYTE

 OPERATOR DM      FOR CENTER  0  COORDINATES:    0.000000    0.000000    0.000000


 **********************************************************************************************************************************
 DATASETS  * FILE   NREC   LENGTH (MB)   RECORD NAMES
              1      19      541.29       500      610      700      900      950      970     1000      129      960     1100   
                                          VAR    BASINP    GEOM    SYMINP    ZMAT    AOBASIS   BASIS     P2S    ABASIS      S 
                                         1400     1410     1200     1210     1080     1600     1650     1300     1700   
                                           T        V       H0       H01     AOSYM     SMH    MOLCAS    ERIS     OPER   

 PROGRAMS   *        TOTAL       INT
 CPU TIMES  *        21.38     21.24
 REAL TIME  *        25.17 SEC
 DISK USED  *         2.11 GB
 **********************************************************************************************************************************


 Program * Restricted Hartree-Fock

 Orbital guess generated from atomic densities. Full valence occupancy:   23   7

 Initial occupancy:  15   4

 NELEC=   38   SYM=1   MS2= 0   THRE=1.0D-08   THRD=3.2D-06   THRG=3.2D-06  HFMA2=F  DIIS_START=2   DIIS_MAX=10   DIIS_INCORE=F

 Level shifts:    0.00 (CLOSED)    0.00 (OPEN)    0.30 (GAP_MIN)

 ITER           ETOT              DE          GRAD        DDIFF     DIIS  NEXP   TIME(IT)  TIME(TOT)  DIAG
   1     -245.61445476    -245.61445476     0.00D+00     0.72D-01     0     0       1.24      2.44    start
   2     -245.66337682      -0.04892206     0.61D-02     0.85D-02     1     0       1.24      3.68    diag
   3     -245.69843519      -0.03505837     0.46D-02     0.38D-02     2     0       1.23      4.91    diag
   4     -245.70027614      -0.00184095     0.80D-03     0.99D-03     3     0       1.26      6.17    diag
   5     -245.70058084      -0.00030470     0.28D-03     0.43D-03     4     0       1.25      7.42    diag
   6     -245.70069153      -0.00011069     0.19D-03     0.20D-03     5     0       1.24      8.66    diag
   7     -245.70074408      -0.00005255     0.73D-04     0.17D-03     6     0       1.24      9.90    diag
   8     -245.70077816      -0.00003408     0.49D-04     0.16D-03     7     0       1.24     11.14    fixocc
   9     -245.70079464      -0.00001648     0.27D-04     0.15D-03     8     0       1.23     12.37    diag
  10     -245.70079708      -0.00000244     0.12D-04     0.52D-04     9     0       1.24     13.61    diag/orth
  11     -245.70079759      -0.00000051     0.52D-05     0.31D-04     9     0       1.25     14.86    diag
  12     -245.70079762      -0.00000002     0.17D-05     0.59D-05     9     0       1.26     16.12    diag
  13     -245.70079762      -0.00000000     0.43D-06     0.85D-06     9     0       1.24     17.36    diag
  14     -245.70079762      -0.00000000     0.24D-06     0.35D-06     0     0       1.25     18.61    diag

 Final occupancy:  15   4

 !RHF STATE 1.1 Energy               -245.700797617597
  RHF One-electron energy            -653.158368650538
  RHF Two-electron energy             246.309085836713
  RHF Kinetic energy                  245.295559315976
  RHF Nuclear energy                  161.148485196228
  RHF Virial quotient                  -1.001652040921

 !RHF STATE 1.1 Dipole moment           0.47916385     1.17648355     0.00000000
 Dipole moment /Debye                   1.21791302     2.99032292     0.00000000

 Orbital energies:

           1.1          2.1          3.1          4.1          5.1          6.1          7.1          8.1          9.1         10.1
    -20.579164   -15.703804   -11.311774   -11.252930   -11.236101    -1.483495    -1.171959    -1.038231    -0.811766    -0.790615

          11.1         12.1         13.1         14.1         15.1         16.1         17.1
     -0.706953    -0.649540    -0.589608    -0.410362    -0.343981     0.076739     0.141159

           1.2          2.2          3.2          4.2          5.2          6.2
     -0.658017    -0.628574    -0.518266    -0.384987     0.156405     0.199820


 HOMO     15.1    -0.343981 =      -9.3602eV
 LUMO     16.1     0.076739 =       2.0882eV
 LUMO-HOMO         0.420720 =      11.4484eV

 Orbitals saved in record  2100.2


 **********************************************************************************************************************************
 DATASETS  * FILE   NREC   LENGTH (MB)   RECORD NAMES
              1      19      541.29       500      610      700      900      950      970     1000      129      960     1100   
                                          VAR    BASINP    GEOM    SYMINP    ZMAT    AOBASIS   BASIS     P2S    ABASIS      S 
                                         1400     1410     1200     1210     1080     1600     1650     1300     1700   
                                           T        V       H0       H01     AOSYM     SMH    MOLCAS    ERIS     OPER   

              2       4        0.95       700     1000      520     2100   
                                         GEOM     BASIS   MCVARS     RHF  

 PROGRAMS   *        TOTAL    HF-SCF       INT
 CPU TIMES  *        40.00     18.61     21.24
 REAL TIME  *        45.46 SEC
 DISK USED  *         2.11 GB
 **********************************************************************************************************************************


 PROGRAM * PAPT (Closed-shell)     Authors: C. Hampel, H.-J. Werner, 1991, P.J. Knowles, 2021


 Convergence thresholds:  THRVAR = 1.00D-08  THRDEN = 1.00D-06

 Number of core orbitals:           5 (   5   0 )
 Number of closed-shell orbitals:  14 (  10   4 )
 Number of external orbitals:     201 ( 123  78 )

 Molecular orbitals read from record     2100.2  Type=RHF/CANONICAL  

 Number of N-1 electron functions:              14
 Number of N-2 electron functions:             105
 Number of singly external CSFs:              1542
 Number of doubly external CSFs:           1999281
 Total number of CSFs:                     2000824

 Length of J-op  integral file:               0.00 MB
 Length of K-op  integral file:               1.83 MB

 Integral transformation finished. Total CPU:   2.68 sec, npass=  1  Memory used:   2.91 MW

 Reference energy:                   -245.70079762

                        CORR.ENERGY   TOTAL ENERGY   ENERGY CHANGE
 MP2:                   -0.98608757  -246.68688518    -0.98608757

 SCS-MP2 correlation energy:           -0.96588370   (PS=  1.200000  PT=  0.333333)
 SCS-MP2 total energy:               -246.66668132
 Iteration:   1     0.3694D+00
 Iteration:   2     0.6779D+00
 Iteration:   3     0.1179D+00
 Iteration:   4     0.1136D+00
 Iteration:   5     0.7894D-01
 Iteration:   6     0.3833D-01
 Iteration:   7     0.2058D+00
 Iteration:   8     0.1885D-01
 Iteration:   9     0.2723D-01
 Iteration:  10     0.1274D-01
 Iteration:  11     0.7721D-02
 Iteration:  12     0.1359D-01
 Iteration:  13     0.2998D-02
 Iteration:  14     0.8674D-02
 Iteration:  15     0.1525D-02
 Iteration:  16     0.1235D-02
 Iteration:  17     0.1178D-02
 Iteration:  18     0.5204D-03
 Iteration:  19     0.7653D-03
 Iteration:  20     0.2748D-03
 Iteration:  21     0.9512D-03
 Iteration:  22     0.6999D-04
 PAPT operator written to  7000.1
 PAPT orbitals and eigenvalues written to  7000.2

 MP3(D):                -0.97203129  -246.67282891     0.01405627



 RESULTS
 =======

  Reference energy                   -245.700797617597
  MP3 singlet pair energy              -0.645354511974
  MP3 triplet pair energy              -0.326676780432
  MP3 correlation energy               -0.972031292406

 !MP3 total energy                   -246.672828910002

 Timing summary (sec):

 STEP                 CPU(USER)    SYS     CPU(TOT)    WALL
 Transformation          2.80      0.22      3.02      3.25
 CCSD iterations        54.07      0.48     54.55     14.78

 Program statistics:

 Available memory in ccsd:               805305569
 Min. memory needed in ccsd:               5099596
 Max. memory used in ccsd:                 6899295
 Max. memory used in cckext:               6952076 ( 1 integral passes)



 **********************************************************************************************************************************
 DATASETS  * FILE   NREC   LENGTH (MB)   RECORD NAMES
              1      21      571.38       500      610      700      900      950      970     1000      129      960     1100   
                                          VAR    BASINP    GEOM    SYMINP    ZMAT    AOBASIS   BASIS     P2S    ABASIS      S 
                                         1400     1410     1200     1210     1080     1600     1650     1300     1700     1380   
                                           T        V       H0       H01     AOSYM     SMH    MOLCAS    ERIS     OPER     JKOP   
                                         7000   
                                        PAPT AO    

              2       5        1.65       700     1000      520     2100     7000   
                                         GEOM     BASIS   MCVARS     RHF     PAPT   

 PROGRAMS   *        TOTAL      PAPT    HF-SCF       INT
 CPU TIMES  *        56.67     16.68     18.61     21.24
 REAL TIME  *        63.54 SEC
 DISK USED  *         2.11 GB
 **********************************************************************************************************************************


 PROGRAM * MP4 (Closed-shell)     Authors: C. Hampel, H.-J. Werner, 1991, M. Deegan, P.J. Knowles, 1992


 Convergence thresholds:  THRVAR = 1.00D-08  THRDEN = 1.00D-06

 MP4(T)     terms to be evaluated (factor= 0.000)


 Number of core orbitals:           5 (   5   0 )
 Number of closed-shell orbitals:  14 (  10   4 )
 Number of external orbitals:     201 ( 123  78 )

 Molecular orbitals read from record     7000.2  Type=PAPT/CANONICAL (state 1.1)

 Number of N-1 electron functions:              14
 Number of N-2 electron functions:             105
 Number of singly external CSFs:              1542
 Number of doubly external CSFs:           1999281
 Total number of CSFs:                     2000824

 Length of J-op  integral file:               0.00 MB
 Length of K-op  integral file:               1.83 MB

 Memory could be reduced to 70.99 Mwords without degradation in triples

 Integral transformation finished. Total CPU:   7.59 sec, npass=  1  Memory used:  27.43 MW
 Orbital energies read from record       7000.2  Type=PAPT/CANONICAL (state 1.1)

 Reference energy:                   -245.70079762

                        CORR.ENERGY   TOTAL ENERGY   ENERGY CHANGE
 MP2:                   -0.98547075  -246.68626837    -0.98547075

 SCS-MP2 correlation energy:           -0.97152721   (PS=  1.200000  PT=  0.333333)
 SCS-MP2 total energy:               -246.67232483

 MP3(D):                -0.98577011  -246.68656773    -0.00029936
 MP4(DQ):               -0.97045428  -246.67125189     0.01531583
 MP4(SDQ):              -0.98272228  -246.68351989    -0.01226800

 Norm of t1 vector:      0.10612979      S-energy:    -0.01226800      T1 diagnostic:  0.01418219

 Largest off-diagonal element in interal  block of Fock matrix:  0.16D+00
 Largest off-diagonal element in external block of Fock matrix:  0.43D+00


 Total CPU time for triples:    192.33 sec


 RESULTS
 =======

  Reference energy                   -245.700797617596
  MP4(SDQ) singlet pair energy         -0.640776382199
  MP4(SDQ) triplet pair energy         -0.329677894729
  MP4(SDQ) correlation energy          -0.982722276211

  Triples contribution                 -0.060864798590
  Total correlation energy             -1.043587074801

  MP4(SDQ) total energy              -246.683519893808
 !MP4(SDTQ) total energy             -246.744384692398

 Timing summary (sec):

 STEP                 CPU(USER)    SYS     CPU(TOT)    WALL
 Transformation          8.96      0.70      9.66     10.14
 CCSD iterations        67.39      0.31     67.70     11.03
 Triples               192.33      7.01    199.34    201.33

 Program statistics:

 Available memory in ccsd:               805305569
 Min. memory needed in ccsd:               5099596
 Max. memory used in ccsd:                 6899295
 Max. memory used in cckext:               6952076 ( 1 integral passes)



 **********************************************************************************************************************************
 DATASETS  * FILE   NREC   LENGTH (MB)   RECORD NAMES
              1      22      790.45       500      610      700      900      950      970     1000      129      960     1100   
                                          VAR    BASINP    GEOM    SYMINP    ZMAT    AOBASIS   BASIS     P2S    ABASIS      S 
                                         1400     1410     1200     1210     1080     1600     1650     1300     1700     1380   
                                           T        V       H0       H01     AOSYM     SMH    MOLCAS    ERIS     OPER     JKOP   
                                         7000     1380(1)
                                        PAPT AO   JKOP   

              2       5        1.65       700     1000      520     2100     7000   
                                         GEOM     BASIS   MCVARS     RHF     PAPT   

 PROGRAMS   *        TOTAL       MP4      PAPT    HF-SCF       INT
 CPU TIMES  *       268.48    211.80     16.68     18.61     21.24
 REAL TIME  *       286.10 SEC
 DISK USED  *         2.11 GB
 **********************************************************************************************************************************

 Dump information in style XML to xml output                                                                      

 Orbitals will not be exported.

 **********************************************************************************************************************************

 MP4/cc-pVTZ energy=   -246.744384692398

             MP4            PAPT          HF-SCF
   -246.74438469   -246.67282891   -245.70079762
 **********************************************************************************************************************************
 Molpro calculation terminated
