
 Working directory              : /home/jovyan/scratch/molpro.hzaOSBiJKq/
 Global scratch directory       : /home/jovyan/scratch/molpro.hzaOSBiJKq/
 Wavefunction directory         : /home/jovyan/wfu/
 Main file repository           : /home/jovyan/scratch/molpro.hzaOSBiJKq/

 id        : cardiff

 Nodes                nprocs
 jupyter-c-2efrancisan    1
 GA implementation: MPI file
 GA implementation (serial work in mppx): MPI file

 Using customized tuning parameters: mindgm=1; mindgv=20; mindgc=4; mindgr=1; noblas=0; minvec=7
 default implementation of scratch files=df  


 Variables initialized (1031), CPU time= 0.01 sec
 
 
 
 geometry={
           13
     C         -1.86938305     -0.82076114      0.00000000
     C         -1.22489282      0.53523134      0.00000000
     C          0.08995065      0.82396445      0.00000000
     C          1.19838604     -0.12151989      0.00000000
     C          2.48956450      0.24307724      0.00000000
     H         -1.91983207      1.37495364      0.00000000
     H          0.37839675      1.87546382      0.00000000
     H          0.95659896     -1.18296127      0.00000000
     H          3.29117379     -0.48943502      0.00000000
     H          2.78611361      1.28993861      0.00000000
     H         -1.14513379     -1.63953743      0.00000000
     H         -2.51547128     -0.94420718      0.87992031
     H         -2.51547128     -0.94420718     -0.87992031
 }
 basis=cc-pVDZ
 angstrom
 
 
 hf; papt;mp2
 
 
 
 {put,xml;noorbitals,nobasis}
 Commands initialized (841), CPU time= 0.01 sec, 704 directives.
 Default parameters read. Elapsed time= 0.09 sec

 Checking input...
 Passed
1


                                         ***  PROGRAM SYSTEM MOLPRO  ***
                                       Copyright, TTI GmbH Stuttgart, 2015
                                    Version 2023.1 linked Mon Jun  5 13:27:10 2023


 **********************************************************************************************************************************
 LABEL *                                                                                                                                                                 
  (16 PROC) 64 bit serial version                                                        DATE: 03-Aug-23          TIME: 10:47:27  
 **********************************************************************************************************************************

 SHA1:             9738a14712571edd23541b6d7c4f3a3d766f8287
 **********************************************************************************************************************************

 Memory per process:       805 MW
 Total memory per node:   1074 MW
 Total GA space:           268 MW

 GA preallocation disabled
 GA check enabled

 Geometry recognized as XYZ


 Variable memory set to 805.3 MW

 SETTING BASIS          =    CC-PVDZ


 Recomputing integrals since basis changed


 Using spherical harmonics

 Library entry C      S cc-pVDZ              selected for orbital group  1
 Library entry C      P cc-pVDZ              selected for orbital group  1
 Library entry C      D cc-pVDZ              selected for orbital group  1
 Library entry H      S cc-pVDZ              selected for orbital group  2
 Library entry H      P cc-pVDZ              selected for orbital group  2


 PROGRAM * SEWARD (Integral evaluation for generally contracted gaussian basis sets)     Author: Roland Lindh, 1990

 Geometry written to block  1 of record 700


 Point group  Cs  



 ATOMIC COORDINATES

 NR  ATOM    CHARGE       X              Y              Z

   1  C       6.00   -3.532621987   -1.551013768    0.000000000
   2  C       6.00   -2.314711962    1.011440646    0.000000000
   3  C       6.00    0.169982093    1.557067147    0.000000000
   4  C       6.00    2.264621407   -0.229639311    0.000000000
   5  C       6.00    4.704595075    0.459349411    0.000000000
   6  H       1.00   -3.627956818    2.598285814    0.000000000
   7  H       1.00    0.715066224    3.544112976    0.000000000
   8  H       1.00    1.807710046   -2.235472816    0.000000000
   9  H       1.00    6.219417092   -0.924898144    0.000000000
  10  H       1.00    5.264991675    2.437630690    0.000000000
  11  H       1.00   -2.163989239   -3.098276714    0.000000000
  12  H       1.00   -4.753551794   -1.784292975    1.662808397
  13  H       1.00   -4.753551794   -1.784292975   -1.662808397

 Bond lengths in Bohr (Angstrom)

  1- 2  2.837160104   1-11  2.065714941   1-12  2.076058898   1-13  2.076058898   2- 3  2.543897173
       ( 1.501360471)       ( 1.093129271)       ( 1.098603057)       ( 1.098603057)       ( 1.346172411)

 2-6  2.059779026  3-4  2.753149800  3-7  2.060453309  4-5  2.535384972  4-8  2.057215605
     ( 1.089988120)     ( 1.456904132)     ( 1.090344935)     ( 1.341667948)     ( 1.088631616)

  5- 9  2.052029979   5-10  2.056122849
       ( 1.085887501)       ( 1.088053355)

 Bond angles

  1- 2- 3  127.80657855   1- 2- 6  114.96815413   2- 1-11  113.08431314   2- 1-12  110.72853427

  2- 1-13  110.72853427   2- 3- 4  127.15086659   2- 3- 7  117.72524747   3- 2- 6  117.22526732

  3-4-5  123.76777387   3-4-8  117.63133391   4-3-7  115.12388594   4-5-9  121.81048805

  4- 5-10  121.58445068   5- 4- 8  118.60089222   9- 5-10  116.60506127  11- 1-12  107.78697748

 11- 1-13  107.78697748  12- 1-13  106.44082138

 NUCLEAR CHARGE:                   38
 NUMBER OF PRIMITIVE AOS:         191
 NUMBER OF SYMMETRY AOS:          186
 NUMBER OF CONTRACTIONS:          110   (   79A'  +   31A"  )
 NUMBER OF INNER CORE ORBITALS:     0   (    0A'  +    0A"  )
 NUMBER OF OUTER CORE ORBITALS:     5   (    5A'  +    0A"  )
 NUMBER OF VALENCE ORBITALS:       28   (   22A'  +    6A"  )


 NUCLEAR REPULSION ENERGY  155.24351619


 Eigenvalues of metric

         1 0.134E-02 0.196E-02 0.289E-02 0.452E-02 0.115E-01 0.150E-01 0.166E-01 0.212E-01
         2 0.374E-01 0.429E-01 0.745E-01 0.108E+00 0.135E+00 0.176E+00 0.199E+00 0.269E+00


 Contracted 2-electron integrals neglected if value below      1.0D-11
 AO integral compression algorithm  1   Integral accuracy      1.0D-11

     41.681 MB (compressed) written to integral file ( 51.2%)


 NUMBER OF SORTED TWO-ELECTRON INTEGRALS:    9819716.     BUFFER LENGTH:  32768
 NUMBER OF SEGMENTS:   1  SEGMENT LENGTH:    9819716      RECORD LENGTH: 524288

 Memory used in sort:      10.38 MW

 SORT1 READ    10236502. AND WROTE     9151345. INTEGRALS IN     27 RECORDS. CPU TIME:     0.17 SEC, REAL TIME:     0.57 SEC
 SORT2 READ     9151345. AND WROTE     9819716. INTEGRALS IN    159 RECORDS. CPU TIME:     0.25 SEC, REAL TIME:     0.28 SEC

 FILE SIZES:   FILE 1:    72.2 MBYTE,  FILE 4:   113.3 MBYTE,   TOTAL:    185.6 MBYTE

 OPERATOR DM      FOR CENTER  0  COORDINATES:    0.000000    0.000000    0.000000


 **********************************************************************************************************************************
 DATASETS  * FILE   NREC   LENGTH (MB)   RECORD NAMES
              1      19       64.93       500      610      700      900      950      970     1000      129      960     1100   
                                          VAR    BASINP    GEOM    SYMINP    ZMAT    AOBASIS   BASIS     P2S    ABASIS      S 
                                         1400     1410     1200     1210     1080     1600     1650     1300     1700   
                                           T        V       H0       H01     AOSYM     SMH    MOLCAS    ERIS     OPER   

 PROGRAMS   *        TOTAL       INT
 CPU TIMES  *         3.44      3.31
 REAL TIME  *         5.41 SEC
 DISK USED  *       177.51 MB
 **********************************************************************************************************************************


 Program * Restricted Hartree-Fock

 Orbital guess generated from atomic densities. Full valence occupancy:   27   6

 Initial occupancy:  16   3

 NELEC=   38   SYM=1   MS2= 0   THRE=1.0D-08   THRD=3.2D-06   THRG=3.2D-06  HFMA2=F  DIIS_START=2   DIIS_MAX=10   DIIS_INCORE=F

 Level shifts:    0.00 (CLOSED)    0.00 (OPEN)    0.30 (GAP_MIN)

 ITER           ETOT              DE          GRAD        DDIFF     DIIS  NEXP   TIME(IT)  TIME(TOT)  DIAG
   1     -193.91386163    -193.91386163     0.00D+00     0.13D+00     0     0       0.09      0.17    start
   2     -193.96703592      -0.05317429     0.55D-02     0.13D-01     1     0       0.07      0.24    diag
   3     -193.97246509      -0.00542917     0.19D-02     0.44D-02     2     0       0.09      0.33    diag
   4     -193.97328494      -0.00081985     0.64D-03     0.17D-02     3     0       0.09      0.42    diag
   5     -193.97332409      -0.00003915     0.17D-03     0.33D-03     4     0       0.08      0.50    diag
   6     -193.97332909      -0.00000500     0.43D-04     0.13D-03     5     0       0.09      0.59    diag
   7     -193.97332949      -0.00000040     0.11D-04     0.34D-04     6     0       0.08      0.67    diag
   8     -193.97332954      -0.00000005     0.35D-05     0.12D-04     7     0       0.09      0.76    fixocc
   9     -193.97332955      -0.00000001     0.18D-05     0.61D-05     8     0       0.09      0.85    diag
  10     -193.97332955      -0.00000000     0.41D-06     0.16D-05     9     0       0.08      0.93    diag/orth
  11     -193.97332955      -0.00000000     0.20D-06     0.49D-06     0     0       0.08      1.01    diag

 Final occupancy:  16   3

 !RHF STATE 1.1 Energy               -193.973329552359
  RHF One-electron energy            -567.588502000591
  RHF Two-electron energy             218.371656259408
  RHF Kinetic energy                  193.658607110488
  RHF Nuclear energy                  155.243516188823
  RHF Virial quotient                  -1.001625140481

 !RHF STATE 1.1 Dipole moment          -0.18285350    -0.08764676     0.00000000
 Dipole moment /Debye                  -0.46476724    -0.22277584     0.00000000

 Orbital energies:

           1.1          2.1          3.1          4.1          5.1          6.1          7.1          8.1          9.1         10.1
    -11.240514   -11.239776   -11.233003   -11.232546   -11.231618    -1.093975    -1.024328    -0.931386    -0.807430    -0.724524

          11.1         12.1         13.1         14.1         15.1         16.1         17.1         18.1
     -0.654147    -0.612284    -0.565822    -0.532352    -0.520279    -0.473258     0.191493     0.199902

           1.2          2.2          3.2          4.2          5.2
     -0.566088    -0.430193    -0.309061     0.124032     0.242051


 HOMO      3.2    -0.309061 =      -8.4100eV
 LUMO      4.2     0.124032 =       3.3751eV
 LUMO-HOMO         0.433093 =      11.7851eV

 Orbitals saved in record  2100.2


 **********************************************************************************************************************************
 DATASETS  * FILE   NREC   LENGTH (MB)   RECORD NAMES
              1      19       64.93       500      610      700      900      950      970     1000      129      960     1100   
                                          VAR    BASINP    GEOM    SYMINP    ZMAT    AOBASIS   BASIS     P2S    ABASIS      S 
                                         1400     1410     1200     1210     1080     1600     1650     1300     1700   
                                           T        V       H0       H01     AOSYM     SMH    MOLCAS    ERIS     OPER   

              2       4        0.70       700     1000      520     2100   
                                         GEOM     BASIS   MCVARS     RHF  

 PROGRAMS   *        TOTAL    HF-SCF       INT
 CPU TIMES  *         4.47      1.03      3.31
 REAL TIME  *         6.56 SEC
 DISK USED  *       177.51 MB
 **********************************************************************************************************************************


 PROGRAM * PAPT (Closed-shell)     Authors: C. Hampel, H.-J. Werner, 1991, P.J. Knowles, 2021


 Convergence thresholds:  THRVAR = 1.00D-08  THRDEN = 1.00D-06

 Number of core orbitals:           5 (   5   0 )
 Number of closed-shell orbitals:  14 (  11   3 )
 Number of external orbitals:      91 (  63  28 )

 Molecular orbitals read from record     2100.2  Type=RHF/CANONICAL  

 Number of N-1 electron functions:              14
 Number of N-2 electron functions:             105
 Number of singly external CSFs:               777
 Number of doubly external CSFs:            426006
 Total number of CSFs:                      426784

 Length of J-op  integral file:               0.00 MB
 Length of K-op  integral file:               0.56 MB

 Integral transformation finished. Total CPU:   0.20 sec, npass=  1  Memory used:   0.85 MW

 Reference energy:                   -193.97332955

                        CORR.ENERGY   TOTAL ENERGY   ENERGY CHANGE
 MP2:                   -0.67891776  -194.65224731    -0.67891776

 SCS-MP2 correlation energy:           -0.67562571   (PS=  1.200000  PT=  0.333333)
 SCS-MP2 total energy:               -194.64895526
 Iteration:   1     0.2648D+00
 Iteration:   2     0.2045D+01
 Iteration:   3     0.1043D+00
 Iteration:   4     0.3644D+00
 Iteration:   5     0.3912D-01
 Iteration:   6     0.3967D-01
 Iteration:   7     0.3768D-01
 Iteration:   8     0.1746D-01
 Iteration:   9     0.1643D+00
 Iteration:  10     0.9586D-02
 Iteration:  11     0.2447D-01
 Iteration:  12     0.4884D-02
 Iteration:  13     0.3687D-02
 Iteration:  14     0.5611D-02
 Iteration:  15     0.1352D-02
 Iteration:  16     0.2452D-02
 Iteration:  17     0.7556D-03
 Iteration:  18     0.4937D-03
 Iteration:  19     0.7189D-03
 Iteration:  20     0.1022D-03
 Iteration:  21     0.1705D-03
 Iteration:  22     0.4473D-04
 PAPT operator written to  7000.1
 PAPT orbitals and eigenvalues written to  7000.2

 MP3(D):                -0.72877620  -194.70210576    -0.04985844



 RESULTS
 =======

  Reference energy                   -193.973329552359
  MP3 singlet pair energy              -0.499260953283
  MP3 triplet pair energy              -0.229515251053
  MP3 correlation energy               -0.728776204336

 !MP3 total energy                   -194.702105756695

 Timing summary (sec):

 STEP                 CPU(USER)    SYS     CPU(TOT)    WALL
 Transformation          0.23      0.03      0.26      0.37
 CCSD iterations         7.33      0.12      7.45      3.31

 Program statistics:

 Available memory in ccsd:               805305568
 Min. memory needed in ccsd:               1175503
 Max. memory used in ccsd:                 1541004
 Max. memory used in cckext:               1634841 ( 1 integral passes)



 **********************************************************************************************************************************
 DATASETS  * FILE   NREC   LENGTH (MB)   RECORD NAMES
              1      21       72.89       500      610      700      900      950      970     1000      129      960     1100   
                                          VAR    BASINP    GEOM    SYMINP    ZMAT    AOBASIS   BASIS     P2S    ABASIS      S 
                                         1400     1410     1200     1210     1080     1600     1650     1300     1700     1380   
                                           T        V       H0       H01     AOSYM     SMH    MOLCAS    ERIS     OPER     JKOP   
                                         7000   
                                        PAPT AO    

              2       5        0.96       700     1000      520     2100     7000   
                                         GEOM     BASIS   MCVARS     RHF     PAPT   

 PROGRAMS   *        TOTAL      PAPT    HF-SCF       INT
 CPU TIMES  *         7.37      2.90      1.03      3.31
 REAL TIME  *        10.29 SEC
 DISK USED  *       177.51 MB
 **********************************************************************************************************************************


 PROGRAM * MP2 (Closed-shell)     Authors: C. Hampel, H.-J. Werner, 1991, M. Deegan, P.J. Knowles, 1992


 Convergence thresholds:  THRVAR = 1.00D-08  THRDEN = 1.00D-06

 Number of core orbitals:           5 (   5   0 )
 Number of closed-shell orbitals:  14 (  11   3 )
 Number of external orbitals:      91 (  63  28 )

 Molecular orbitals read from record     7000.2  Type=PAPT/CANONICAL (state 1.1)

 Number of N-1 electron functions:              14
 Number of N-2 electron functions:             105
 Number of singly external CSFs:               777
 Number of doubly external CSFs:            426006
 Total number of CSFs:                      426784

 Length of J-op  integral file:               0.00 MB
 Length of K-op  integral file:               0.56 MB

 Integral transformation finished. Total CPU:   0.20 sec, npass=  1  Memory used:   0.85 MW
 Orbital energies read from record       7000.2  Type=PAPT/CANONICAL (state 1.1)

 Memory needed for MP2:                      0.03 MW

 SCS-MP2 correlation energy:           -0.740021308831   (PS=  1.200000  PT=  0.333333)
 SCS-MP2 total energy:               -194.713350861190


  Reference energy                   -193.973329552359
  MP2 singlet pair energy              -0.485454094778
  MP2 triplet pair energy              -0.253087063549
  MP2 correlation energy               -0.738541158327

 !MP2 total energy                   -194.711870710686


 **********************************************************************************************************************************
 DATASETS  * FILE   NREC   LENGTH (MB)   RECORD NAMES
              1      21       72.89       500      610      700      900      950      970     1000      129      960     1100   
                                          VAR    BASINP    GEOM    SYMINP    ZMAT    AOBASIS   BASIS     P2S    ABASIS      S 
                                         1400     1410     1200     1210     1080     1600     1650     1300     1700     1380   
                                           T        V       H0       H01     AOSYM     SMH    MOLCAS    ERIS     OPER     JKOP   
                                         7000   
                                        PAPT AO    

              2       5        0.96       700     1000      520     2100     7000   
                                         GEOM     BASIS   MCVARS     RHF     PAPT   

 PROGRAMS   *        TOTAL       MP2      PAPT    HF-SCF       INT
 CPU TIMES  *         7.76      0.39      2.90      1.03      3.31
 REAL TIME  *        11.06 SEC
 DISK USED  *       177.51 MB
 **********************************************************************************************************************************

 Dump information in style XML to xml output                                                                      

 Orbitals will not be exported.

 **********************************************************************************************************************************

 MP2/cc-pVDZ energy=   -194.711870710686

             MP2            PAPT          HF-SCF
   -194.71187071   -194.70210576   -193.97332955
 **********************************************************************************************************************************
 Molpro calculation terminated
