
 Working directory              : /home/jovyan/scratch/molpro.gaHMXPOGgL/
 Global scratch directory       : /home/jovyan/scratch/molpro.gaHMXPOGgL/
 Wavefunction directory         : /home/jovyan/wfu/
 Main file repository           : /home/jovyan/scratch/molpro.gaHMXPOGgL/

 id        : cardiff

 Nodes                nprocs
 jupyter-c-2efrancisan    1
 GA implementation: MPI file
 GA implementation (serial work in mppx): MPI file

 Using customized tuning parameters: mindgm=1; mindgv=20; mindgc=4; mindgr=1; noblas=0; minvec=7
 default implementation of scratch files=df  


 Variables initialized (1031), CPU time= 0.00 sec
 
 
 
 geometry={
            4
     C          0.00000000      0.00000000     -0.61465700
     H          0.00000000      0.00000000     -1.67439300
     N          0.00000000      0.00000000      0.54494500
     O          0.00000000      0.00000000      1.74410500
 }
 basis=cc-pVTZ
 angstrom
 
 
 hf; mp3
 
 
 
 {put,xml;noorbitals,nobasis}
 Commands initialized (841), CPU time= 0.01 sec, 704 directives.
 Default parameters read. Elapsed time= 0.08 sec

 Checking input...
 Passed
1


                                         ***  PROGRAM SYSTEM MOLPRO  ***
                                       Copyright, TTI GmbH Stuttgart, 2015
                                    Version 2023.1 linked Mon Jun  5 13:27:10 2023


 **********************************************************************************************************************************
 LABEL *                                                                                                                                                                 
  (16 PROC) 64 bit serial version                                                        DATE: 03-Aug-23          TIME: 10:19:33  
 **********************************************************************************************************************************

 SHA1:             9738a14712571edd23541b6d7c4f3a3d766f8287
 **********************************************************************************************************************************

 Memory per process:       805 MW
 Total memory per node:   1074 MW
 Total GA space:           268 MW

 GA preallocation disabled
 GA check enabled

 Geometry recognized as XYZ


 Variable memory set to 805.3 MW

 SETTING BASIS          =    CC-PVTZ


 Recomputing integrals since basis changed


 Using spherical harmonics

 Library entry C      S cc-pVTZ              selected for orbital group  1
 Library entry C      P cc-pVTZ              selected for orbital group  1
 Library entry C      D cc-pVTZ              selected for orbital group  1
 Library entry C      F cc-pVTZ              selected for orbital group  1
 Library entry H      S cc-pVTZ              selected for orbital group  2
 Library entry H      P cc-pVTZ              selected for orbital group  2
 Library entry H      D cc-pVTZ              selected for orbital group  2
 Library entry N      S cc-pVTZ              selected for orbital group  3
 Library entry N      P cc-pVTZ              selected for orbital group  3
 Library entry N      D cc-pVTZ              selected for orbital group  3
 Library entry N      F cc-pVTZ              selected for orbital group  3
 Library entry O      S cc-pVTZ              selected for orbital group  4
 Library entry O      P cc-pVTZ              selected for orbital group  4
 Library entry O      D cc-pVTZ              selected for orbital group  4
 Library entry O      F cc-pVTZ              selected for orbital group  4


 PROGRAM * SEWARD (Integral evaluation for generally contracted gaussian basis sets)     Author: Roland Lindh, 1990

 Geometry written to block  1 of record 700


 Point group  C2v 



 ATOMIC COORDINATES

 NR  ATOM    CHARGE       X              Y              Z

   1  C       6.00    0.000000000    0.000000000   -1.161533391
   2  H       1.00    0.000000000    0.000000000   -3.164144195
   3  N       7.00    0.000000000    0.000000000    1.029796803
   4  O       8.00    0.000000000    0.000000000    3.295880783

 Bond lengths in Bohr (Angstrom)

 1-2  2.002610804  1-3  2.191330194  3-4  2.266083980
     ( 1.059736000)     ( 1.159602000)     ( 1.199160000)

 Bond angles

  1-3-4  179.99999791   2-1-3  179.99999879

 NUCLEAR CHARGE:                   22
 NUMBER OF PRIMITIVE AOS:         158
 NUMBER OF SYMMETRY AOS:          142
 NUMBER OF CONTRACTIONS:          104   (   46A1  +   24B1  +   24B2  +   10A2  )
 NUMBER OF INNER CORE ORBITALS:     0   (    0A1  +    0B1  +    0B2  +    0A2  )
 NUMBER OF OUTER CORE ORBITALS:     3   (    3A1  +    0B1  +    0B2  +    0A2  )
 NUMBER OF VALENCE ORBITALS:       13   (    7A1  +    3B1  +    3B2  +    0A2  )


 NUCLEAR REPULSION ENERGY   60.55079965

 EXTRA SYMMETRY OF AOS IN SYMMETRY 1:   1 1 1 1 1 1 1 1 2 1   2 1 2 1 1 1 1 1 1 2   1 1 1 1 1 1 1 1 2 1   2 1 2 1 1 1 1 1 1 1
                                        1 2 1 2 1 2
 EXTRA SYMMETRY OF AOS IN SYMMETRY 2:   1 1 1 1 1 1 2 1 1 1   1 1 1 1 1 1 2 1 1 1   1 1 1 2
 EXTRA SYMMETRY OF AOS IN SYMMETRY 3:   1 1 1 1 1 1 2 1 1 1   1 1 1 1 1 1 2 1 1 1   1 1 1 2

 Eigenvalues of metric

         1 0.759E-03 0.128E-02 0.170E-02 0.220E-02 0.367E-02 0.610E-02 0.110E-01 0.198E-01
         2 0.136E-01 0.321E-01 0.372E-01 0.534E-01 0.703E-01 0.895E-01 0.149E+00 0.281E+00
         3 0.136E-01 0.321E-01 0.372E-01 0.534E-01 0.703E-01 0.895E-01 0.149E+00 0.281E+00
         4 0.279E+00 0.413E+00 0.467E+00 0.582E+00 0.777E+00 0.955E+00 0.127E+01 0.156E+01


 Contracted 2-electron integrals neglected if value below      1.0D-11
 AO integral compression algorithm  1   Integral accuracy      1.0D-11

     17.039 MB (compressed) written to integral file ( 44.7%)


 NUMBER OF SORTED TWO-ELECTRON INTEGRALS:    3964706.     BUFFER LENGTH:  32768
 NUMBER OF SEGMENTS:   1  SEGMENT LENGTH:    3964706      RECORD LENGTH: 524288

 Memory used in sort:       4.52 MW

 SORT1 READ     4701181. AND WROTE     3143099. INTEGRALS IN      9 RECORDS. CPU TIME:     0.11 SEC, REAL TIME:     0.21 SEC
 SORT2 READ     3143099. AND WROTE     3964706. INTEGRALS IN     65 RECORDS. CPU TIME:     0.14 SEC, REAL TIME:     0.15 SEC

 FILE SIZES:   FILE 1:    47.4 MBYTE,  FILE 4:    37.8 MBYTE,   TOTAL:     85.2 MBYTE

 OPERATOR DM      FOR CENTER  0  COORDINATES:    0.000000    0.000000    0.000000


 **********************************************************************************************************************************
 DATASETS  * FILE   NREC   LENGTH (MB)   RECORD NAMES
              1      19       42.51       500      610      700      900      950      970     1000      129      960     1100   
                                          VAR    BASINP    GEOM    SYMINP    ZMAT    AOBASIS   BASIS     P2S    ABASIS      S 
                                         1400     1410     1200     1210     1080     1600     1650     1300     1700   
                                           T        V       H0       H01     AOSYM     SMH    MOLCAS    ERIS     OPER   

 PROGRAMS   *        TOTAL       INT
 CPU TIMES  *         1.97      1.83
 REAL TIME  *         3.14 SEC
 DISK USED  *        81.61 MB
 **********************************************************************************************************************************


 Program * Restricted Hartree-Fock

 Orbital guess generated from atomic densities. Full valence occupancy:   10   3   3   0

 Initial occupancy:   7   2   2   0

 NELEC=   22   SYM=1   MS2= 0   THRE=1.0D-08   THRD=3.2D-06   THRG=3.2D-06  HFMA2=F  DIIS_START=2   DIIS_MAX=10   DIIS_INCORE=F

 Level shifts:    0.00 (CLOSED)    0.00 (OPEN)    0.30 (GAP_MIN)

 ITER           ETOT              DE          GRAD        DDIFF     DIIS  NEXP   TIME(IT)  TIME(TOT)  DIAG
   1     -167.63971309    -167.63971309     0.00D+00     0.15D+00     0     0       0.02      0.04    start
   2     -167.66869190      -0.02897881     0.14D-01     0.18D-01     1     0       0.03      0.07    diag
   3     -167.69359133      -0.02489943     0.10D-01     0.87D-02     2     0       0.02      0.09    diag
   4     -167.69422021      -0.00062888     0.14D-02     0.16D-02     3     0       0.03      0.12    diag
   5     -167.69432965      -0.00010944     0.48D-03     0.79D-03     4     0       0.02      0.14    diag
   6     -167.69436687      -0.00003723     0.32D-03     0.34D-03     5     0       0.02      0.16    diag
   7     -167.69437042      -0.00000355     0.62D-04     0.14D-03     6     0       0.02      0.18    diag
   8     -167.69437057      -0.00000015     0.15D-04     0.29D-04     7     0       0.03      0.21    fixocc
   9     -167.69437058      -0.00000001     0.33D-05     0.58D-05     8     0       0.02      0.23    diag
  10     -167.69437058      -0.00000000     0.34D-06     0.66D-06     9     0       0.02      0.25    diag/orth
  11     -167.69437058      -0.00000000     0.42D-07     0.56D-07     0     0       0.02      0.27    diag

 Final occupancy:   7   2   2   0

 !RHF STATE 1.1 Energy               -167.694370578206
  RHF One-electron energy            -348.260211054527
  RHF Two-electron energy             120.015040826137
  RHF Kinetic energy                  167.384421751755
  RHF Nuclear energy                   60.550799650184
  RHF Virial quotient                  -1.001851718477

 !RHF STATE 1.1 Dipole moment           0.00000000     0.00000000    -1.64222183
 Dipole moment /Debye                   0.00000000     0.00000000    -4.17411153

 Orbital energies:

           1.1          2.1          3.1          4.1          5.1          6.1          7.1          8.1          9.1
    -20.580797   -15.760200   -11.315959    -1.511837    -1.227551    -0.817916    -0.730694     0.133532     0.215980

           1.2          2.2          3.2          4.2
     -0.679061    -0.405994     0.157487     0.439774

           1.3          2.3          3.3          4.3
     -0.679061    -0.405994     0.157487     0.439774

           1.4          2.4
      0.784653     1.274876


 HOMO      2.3    -0.405994 =     -11.0477eV
 LUMO      8.1     0.133532 =       3.6336eV
 LUMO-HOMO         0.539526 =      14.6812eV

 Orbitals saved in record  2100.2


 **********************************************************************************************************************************
 DATASETS  * FILE   NREC   LENGTH (MB)   RECORD NAMES
              1      19       42.51       500      610      700      900      950      970     1000      129      960     1100   
                                          VAR    BASINP    GEOM    SYMINP    ZMAT    AOBASIS   BASIS     P2S    ABASIS      S 
                                         1400     1410     1200     1210     1080     1600     1650     1300     1700   
                                           T        V       H0       H01     AOSYM     SMH    MOLCAS    ERIS     OPER   

              2       4        0.49       700     1000      520     2100   
                                         GEOM     BASIS   MCVARS     RHF  

 PROGRAMS   *        TOTAL    HF-SCF       INT
 CPU TIMES  *         2.25      0.27      1.83
 REAL TIME  *         3.47 SEC
 DISK USED  *        81.61 MB
 **********************************************************************************************************************************


 PROGRAM * MP3 (Closed-shell)     Authors: C. Hampel, H.-J. Werner, 1991, M. Deegan, P.J. Knowles, 1992


 Convergence thresholds:  THRVAR = 1.00D-08  THRDEN = 1.00D-06

 Number of core orbitals:           3 (   3   0   0   0 )
 Number of closed-shell orbitals:   8 (   4   2   2   0 )
 Number of external orbitals:      93 (  39  22  22  10 )

 Molecular orbitals read from record     2100.2  Type=RHF/CANONICAL  

 Number of N-1 electron functions:               8
 Number of N-2 electron functions:              36
 Number of singly external CSFs:               244
 Number of doubly external CSFs:             72928
 Total number of CSFs:                       73173

 Length of J-op  integral file:               0.00 MB
 Length of K-op  integral file:               0.29 MB

 Integral transformation finished. Total CPU:   0.05 sec, npass=  1  Memory used:   0.17 MW

 Reference energy:                   -167.69437058

                        CORR.ENERGY   TOTAL ENERGY   ENERGY CHANGE
 MP2:                   -0.60384025  -168.29821083    -0.60384025

 SCS-MP2 correlation energy:           -0.58625440   (PS=  1.200000  PT=  0.333333)
 SCS-MP2 total energy:               -168.28062498

 MP3(D):                -0.58565145  -168.28002202     0.01818881



 RESULTS
 =======

  Reference energy                   -167.694370578206
  MP3 singlet pair energy              -0.380104253759
  MP3 triplet pair energy              -0.205547191400
  MP3 correlation energy               -0.585651445160

 !MP3 total energy                   -168.280022023366

 Timing summary (sec):

 STEP                 CPU(USER)    SYS     CPU(TOT)    WALL
 Transformation          0.06      0.01      0.07      0.18
 CCSD iterations         2.59      0.01      2.60      0.12

 Program statistics:

 Available memory in ccsd:               805306105
 Min. memory needed in ccsd:                236717
 Max. memory used in ccsd:                  295649
 Max. memory used in cckext:                314078 ( 1 integral passes)



 **********************************************************************************************************************************
 DATASETS  * FILE   NREC   LENGTH (MB)   RECORD NAMES
              1      20       43.78       500      610      700      900      950      970     1000      129      960     1100   
                                          VAR    BASINP    GEOM    SYMINP    ZMAT    AOBASIS   BASIS     P2S    ABASIS      S 
                                         1400     1410     1200     1210     1080     1600     1650     1300     1700     1380   
                                           T        V       H0       H01     AOSYM     SMH    MOLCAS    ERIS     OPER     JKOP   

              2       4        0.49       700     1000      520     2100   
                                         GEOM     BASIS   MCVARS     RHF  

 PROGRAMS   *        TOTAL       MP3    HF-SCF       INT
 CPU TIMES  *         2.45      0.20      0.27      1.83
 REAL TIME  *         3.83 SEC
 DISK USED  *        81.61 MB
 **********************************************************************************************************************************

 Dump information in style XML to xml output                                                                      

 Orbitals will not be exported.

 **********************************************************************************************************************************

 MP3/cc-pVTZ energy=   -168.280022023366

             MP3          HF-SCF
   -168.28002202   -167.69437058
 **********************************************************************************************************************************
 Molpro calculation terminated
