
 Working directory              : /home/jovyan/scratch/molpro.4cirNCUkcH/
 Global scratch directory       : /home/jovyan/scratch/molpro.4cirNCUkcH/
 Wavefunction directory         : /home/jovyan/wfu/
 Main file repository           : /home/jovyan/scratch/molpro.4cirNCUkcH/

 id        : cardiff

 Nodes                nprocs
 jupyter-c-2efrancisan    1
 GA implementation: MPI file
 GA implementation (serial work in mppx): MPI file

 Using customized tuning parameters: mindgm=1; mindgv=20; mindgc=4; mindgr=1; noblas=0; minvec=7
 default implementation of scratch files=df  


 Variables initialized (1031), CPU time= 0.00 sec
 
 
 
 geometry={
 16
  O     1.2974841    1.0074030   -0.7498257
  C     0.7225121    0.0395694    0.0172773
  C    -0.7225121   -0.0395694    0.0172773
  O    -1.2974841   -1.0074030   -0.7498257
  C    -2.6299475   -0.8691602   -0.6182315
  C    -2.9323870    0.1653405    0.1958645
  C    -1.6875177    0.7094337    0.6145398
  H    -1.5215572    1.5437234    1.2685818
  H    -3.9158592    0.4973274    0.4675193
  H    -3.2250196   -1.5753406   -1.1627414
  C     2.6299475    0.8691602   -0.6182315
  C     2.9323870   -0.1653405    0.1958645
  C     1.6875177   -0.7094337    0.6145398
  H     3.2250196    1.5753406   -1.1627414
  H     3.9158592   -0.4973274    0.4675193
  H     1.5215572   -1.5437234    1.2685818
 }
 basis=cc-pVTZ
 angstrom
 
 
 hf; mp2
 
 
 
 {put,xml;noorbitals,nobasis}
 Commands initialized (841), CPU time= 0.01 sec, 704 directives.
 Default parameters read. Elapsed time= 0.08 sec

 Checking input...
 Passed
1


                                         ***  PROGRAM SYSTEM MOLPRO  ***
                                       Copyright, TTI GmbH Stuttgart, 2015
                                    Version 2023.1 linked Mon Jun  5 13:27:10 2023


 **********************************************************************************************************************************
 LABEL *                                                                                                                                                                 
  (16 PROC) 64 bit serial version                                                        DATE: 03-Aug-23          TIME: 12:50:47  
 **********************************************************************************************************************************

 SHA1:             9738a14712571edd23541b6d7c4f3a3d766f8287
 **********************************************************************************************************************************

 Memory per process:       805 MW
 Total memory per node:   1074 MW
 Total GA space:           268 MW

 GA preallocation disabled
 GA check enabled

 Geometry recognized as XYZ


 Variable memory set to 805.3 MW

 SETTING BASIS          =    CC-PVTZ


 Recomputing integrals since basis changed


 Using spherical harmonics

 Library entry O      S cc-pVTZ              selected for orbital group  1
 Library entry O      P cc-pVTZ              selected for orbital group  1
 Library entry O      D cc-pVTZ              selected for orbital group  1
 Library entry O      F cc-pVTZ              selected for orbital group  1
 Library entry C      S cc-pVTZ              selected for orbital group  2
 Library entry C      P cc-pVTZ              selected for orbital group  2
 Library entry C      D cc-pVTZ              selected for orbital group  2
 Library entry C      F cc-pVTZ              selected for orbital group  2
 Library entry H      S cc-pVTZ              selected for orbital group  3
 Library entry H      P cc-pVTZ              selected for orbital group  3
 Library entry H      D cc-pVTZ              selected for orbital group  3


 PROGRAM * SEWARD (Integral evaluation for generally contracted gaussian basis sets)     Author: Roland Lindh, 1990

 Geometry written to block  1 of record 700


 Point group  C2  



 ATOMIC COORDINATES

 NR  ATOM    CHARGE       X              Y              Z

   1  O       8.00    2.451889600    1.903715767   -1.416965214
   2  O       8.00   -2.451889600   -1.903715767   -1.416965214
   3  C       6.00    1.365349991    0.074775329    0.032649365
   4  C       6.00   -1.365349991   -0.074775329    0.032649365
   5  C       6.00   -4.969880497   -1.642474736   -1.168288217
   6  C       6.00    4.969880497    1.642474736   -1.168288217
   7  C       6.00   -5.541408321    0.312448262    0.370130263
   8  C       6.00    5.541408321   -0.312448262    0.370130263
   9  C       6.00   -3.188946283    1.340635397    1.161311915
  10  C       6.00    3.188946283   -1.340635397    1.161311915
  11  H       1.00   -2.875326391    2.917214438    2.397272169
  12  H       1.00    2.875326391   -2.917214438    2.397272169
  13  H       1.00   -7.399901431    0.939812580    0.883483435
  14  H       1.00    7.399901431   -0.939812580    0.883483435
  15  H       1.00   -6.094403791   -2.976962287   -2.197262800
  16  H       1.00    6.094403791    2.976962287   -2.197262800

 Bond lengths in Bohr (Angstrom)

 1-3  2.574290947  1-6  2.543691271  2-4  2.574290947  2-5  2.543691271  3-4  2.734792092
     ( 1.362256103)     ( 1.346063452)     ( 1.362256103)     ( 1.346063452)     ( 1.447189652)

  3-10  2.569585591   4- 9  2.569585591   5- 7  2.552469275   5-15  2.025882117   6- 8  2.552469275
       ( 1.359766136)       ( 1.359766136)       ( 1.350708572)       ( 1.072050648)       ( 1.350708572)

  6-16  2.025882117   7- 9  2.686487452   7-13  2.027588248   8-10  2.686487452   8-14  2.027588248
       ( 1.072050648)       ( 1.421627937)       ( 1.072953494)       ( 1.421627937)       ( 1.072953494)

  9-11  2.027697379  10-12  2.027697379
       ( 1.073011244)       ( 1.073011244)

 Bond angles

  1- 3- 4  117.40602441   1- 3-10  109.82498466   1- 6- 8  111.05297997   1- 6-16  115.60495453

  2- 4- 3  117.40602441   2- 4- 9  109.82498466   2- 5- 7  111.05297997   2- 5-15  115.60495453

  3- 1- 6  106.84550722   3- 4- 9  132.72662389   3-10- 8  106.33606183   3-10-12  125.89148011

  4- 2- 5  106.84550722   4- 3-10  132.72662389   4- 9- 7  106.33606183   4- 9-11  125.89148011

  5- 7- 9  105.93571838   5- 7-13  126.49946791   6- 8-10  105.93571838   6- 8-14  126.49946791

  7- 5-15  133.34187640   7- 9-11  127.77240329   8- 6-16  133.34187640   8-10-12  127.77240329

  9- 7-13  127.56436323  10- 8-14  127.56436323

 NUCLEAR CHARGE:                   70
 NUMBER OF PRIMITIVE AOS:         572
 NUMBER OF SYMMETRY AOS:          516
 NUMBER OF CONTRACTIONS:          384   (  192A   +  192B   )
 NUMBER OF INNER CORE ORBITALS:     0   (    0A   +    0B   )
 NUMBER OF OUTER CORE ORBITALS:    10   (    5A   +    5B   )
 NUMBER OF VALENCE ORBITALS:       46   (   23A   +   23B   )


 NUCLEAR REPULSION ENERGY  482.01306671


 Eigenvalues of metric

         1 0.813E-04 0.514E-03 0.981E-03 0.105E-02 0.119E-02 0.126E-02 0.134E-02 0.147E-02
         2 0.730E-04 0.114E-03 0.621E-03 0.953E-03 0.109E-02 0.113E-02 0.128E-02 0.134E-02


 Contracted 2-electron integrals neglected if value below      1.0D-11
 AO integral compression algorithm  1   Integral accuracy      1.0D-11

     5864.948 MB (compressed) written to integral file ( 48.0%)


 NUMBER OF SORTED TWO-ELECTRON INTEGRALS: 1373165664.     BUFFER LENGTH:  32768
 NUMBER OF SEGMENTS:  43  SEGMENT LENGTH:   31999185      RECORD LENGTH: 524288

 Memory used in sort:      32.56 MW

 SORT1 READ  1528674136. AND WROTE  1323806741. INTEGRALS IN   3811 RECORDS. CPU TIME:    24.28 SEC, REAL TIME:    36.11 SEC
 SORT2 READ  1323806741. AND WROTE  1373165664. INTEGRALS IN  22373 RECORDS. CPU TIME:    27.62 SEC, REAL TIME:    47.59 SEC

 FILE SIZES:   FILE 1:  5898.9 MBYTE,  FILE 4: 15984.6 MBYTE,   TOTAL:  21883.4 MBYTE

 OPERATOR DM      FOR CENTER  0  COORDINATES:    0.000000    0.000000    0.000000


 **********************************************************************************************************************************
 DATASETS  * FILE   NREC   LENGTH (MB)   RECORD NAMES
              1      19     5283.51       500      610      700      900      950      970     1000      129      960     1100   
                                          VAR    BASINP    GEOM    SYMINP    ZMAT    AOBASIS   BASIS     P2S    ABASIS      S 
                                         1400     1410     1200     1210     1080     1600     1650     1300     1700   
                                           T        V       H0       H01     AOSYM     SMH    MOLCAS    ERIS     OPER   

 PROGRAMS   *        TOTAL       INT
 CPU TIMES  *       168.84    168.71
 REAL TIME  *       212.94 SEC
 DISK USED  *        20.38 GB
 **********************************************************************************************************************************


 Program * Restricted Hartree-Fock

 Orbital guess generated from atomic densities. Full valence occupancy:   28  28

 Initial occupancy:  18  17

 NELEC=   70   SYM=1   MS2= 0   THRE=1.0D-08   THRD=3.2D-06   THRG=3.2D-06  HFMA2=F  DIIS_START=2   DIIS_MAX=10   DIIS_INCORE=F

 Level shifts:    0.00 (CLOSED)    0.00 (OPEN)    0.30 (GAP_MIN)

 ITER           ETOT              DE          GRAD        DDIFF     DIIS  NEXP   TIME(IT)  TIME(TOT)  DIAG
   1     -456.15575045    -456.15575045     0.00D+00     0.58D-01     0     0       9.53     18.50    start
   2     -456.23870320      -0.08295275     0.36D-02     0.51D-02     1     0       9.43     27.93    diag
   3     -456.25427700      -0.01557380     0.17D-02     0.21D-02     2     0       9.41     37.34    diag
   4     -456.25754319      -0.00326619     0.66D-03     0.83D-03     3     0       9.39     46.73    diag
   5     -456.25778178      -0.00023860     0.19D-03     0.23D-03     4     0       9.37     56.10    diag
   6     -456.25782151      -0.00003973     0.53D-04     0.86D-04     5     0       9.47     65.57    diag
   7     -456.25783322      -0.00001171     0.22D-04     0.51D-04     6     0       9.50     75.07    diag
   8     -456.25783439      -0.00000117     0.74D-05     0.16D-04     7     0       9.48     84.55    fixocc
   9     -456.25783451      -0.00000012     0.28D-05     0.57D-05     8     0       9.44     93.99    diag
  10     -456.25783452      -0.00000001     0.80D-06     0.14D-05     9     0       9.42    103.41    diag/orth
  11     -456.25783452      -0.00000000     0.25D-06     0.48D-06     0     0       9.46    112.87    diag

 Final occupancy:  18  17

 !RHF STATE 1.1 Energy               -456.257834518744
  RHF One-electron energy           -1576.842491621703
  RHF Two-electron energy             638.571590396745
  RHF Kinetic energy                  455.784732917249
  RHF Nuclear energy                  482.013066706214
  RHF Virial quotient                  -1.001037993525

 !RHF STATE 1.1 Dipole moment           0.00000000     0.00000000     0.30250159
 Dipole moment /Debye                   0.00000000     0.00000000     0.76888236

 Orbital energies:

           1.1          2.1          3.1          4.1          5.1          6.1          7.1          8.1          9.1         10.1
    -20.624572   -11.293545   -11.286686   -11.231805   -11.226784    -1.471819    -1.094055    -1.056938    -0.826707    -0.804774

          11.1         12.1         13.1         14.1         15.1         16.1         17.1         18.1         19.1         20.1
     -0.751161    -0.645607    -0.609565    -0.573547    -0.567558    -0.536256    -0.404195    -0.332958     0.135610     0.157404

           1.2          2.2          3.2          4.2          5.2          6.2          7.2          8.2          9.2         10.2
    -20.624572   -11.292697   -11.286686   -11.231805   -11.226784    -1.462178    -1.089576    -0.973971    -0.816662    -0.763682

          11.2         12.2         13.2         14.2         15.2         16.2         17.2         18.2         19.2
     -0.685942    -0.637754    -0.589179    -0.570023    -0.551775    -0.397487    -0.310255     0.153581     0.158060


 HOMO     17.2    -0.310255 =      -8.4425eV
 LUMO     19.1     0.135610 =       3.6901eV
 LUMO-HOMO         0.445865 =      12.1326eV

 Orbitals saved in record  2100.2


 **********************************************************************************************************************************
 DATASETS  * FILE   NREC   LENGTH (MB)   RECORD NAMES
              1      19     5283.51       500      610      700      900      950      970     1000      129      960     1100   
                                          VAR    BASINP    GEOM    SYMINP    ZMAT    AOBASIS   BASIS     P2S    ABASIS      S 
                                         1400     1410     1200     1210     1080     1600     1650     1300     1700   
                                           T        V       H0       H01     AOSYM     SMH    MOLCAS    ERIS     OPER   

              2       4        1.82       700     1000      520     2100   
                                         GEOM     BASIS   MCVARS     RHF  

 PROGRAMS   *        TOTAL    HF-SCF       INT
 CPU TIMES  *       281.72    112.88    168.71
 REAL TIME  *       344.07 SEC
 DISK USED  *        20.38 GB
 **********************************************************************************************************************************


 PROGRAM * MP2 (Closed-shell)     Authors: C. Hampel, H.-J. Werner, 1991, M. Deegan, P.J. Knowles, 1992


 Convergence thresholds:  THRVAR = 1.00D-08  THRDEN = 1.00D-06

 Number of core orbitals:          10 (   5   5 )
 Number of closed-shell orbitals:  25 (  13  12 )
 Number of external orbitals:     349 ( 174 175 )

 Molecular orbitals read from record     2100.2  Type=RHF/CANONICAL  

 Number of N-1 electron functions:              25
 Number of N-2 electron functions:             325
 Number of singly external CSFs:              4362
 Number of doubly external CSFs:          19035769
 Total number of CSFs:                    19040132

 Length of J-op  integral file:               0.00 MB
 Length of K-op  integral file:               5.12 MB

 Integral transformation finished. Total CPU:  39.58 sec, npass=  1  Memory used:  28.25 MW

 Memory needed for MP2:                      0.36 MW

 SCS-MP2 correlation energy:           -1.675413526237   (PS=  1.200000  PT=  0.333333)
 SCS-MP2 total energy:               -457.933248044983


  Reference energy                   -456.257834518745
  MP2 singlet pair energy              -1.047279884589
  MP2 triplet pair energy              -0.672874818316
  MP2 correlation energy               -1.720154702906

 !MP2 total energy                   -457.977989221651


 **********************************************************************************************************************************
 DATASETS  * FILE   NREC   LENGTH (MB)   RECORD NAMES
              1      20     5559.11       500      610      700      900      950      970     1000      129      960     1100   
                                          VAR    BASINP    GEOM    SYMINP    ZMAT    AOBASIS   BASIS     P2S    ABASIS      S 
                                         1400     1410     1200     1210     1080     1600     1650     1300     1700     1380   
                                           T        V       H0       H01     AOSYM     SMH    MOLCAS    ERIS     OPER     JKOP   

              2       4        1.82       700     1000      520     2100   
                                         GEOM     BASIS   MCVARS     RHF  

 PROGRAMS   *        TOTAL       MP2    HF-SCF       INT
 CPU TIMES  *       322.92     41.20    112.88    168.71
 REAL TIME  *       388.73 SEC
 DISK USED  *        20.38 GB
 **********************************************************************************************************************************

 Dump information in style XML to xml output                                                                      

 Orbitals will not be exported.

 **********************************************************************************************************************************

 MP2/cc-pVTZ energy=   -457.977989221651

             MP2          HF-SCF
   -457.97798922   -456.25783452
 **********************************************************************************************************************************
 Molpro calculation terminated
