
 Working directory              : /home/jovyan/scratch/molpro.LlzSgq3CW2/
 Global scratch directory       : /home/jovyan/scratch/molpro.LlzSgq3CW2/
 Wavefunction directory         : /home/jovyan/wfu/
 Main file repository           : /home/jovyan/scratch/molpro.LlzSgq3CW2/

 id        : cardiff

 Nodes                nprocs
 jupyter-c-2efrancisan    1
 GA implementation: MPI file
 GA implementation (serial work in mppx): MPI file

 Using customized tuning parameters: mindgm=1; mindgv=20; mindgc=4; mindgr=1; noblas=0; minvec=7
 default implementation of scratch files=df  


 Variables initialized (1031), CPU time= 0.01 sec
 
 
 
 geometry={
            2
     O          0.00000000      0.00000000      0.48102212
     H          0.00000000      0.00000000     -0.48102212
 }
 basis=cc-pVDZ
 angstrom
 charge=-1
 
 hf; mp4
 
 
 
 {put,xml;noorbitals,nobasis}
 Commands initialized (841), CPU time= 0.01 sec, 704 directives.
 Default parameters read. Elapsed time= 0.08 sec

 Checking input...
 Passed
1


                                         ***  PROGRAM SYSTEM MOLPRO  ***
                                       Copyright, TTI GmbH Stuttgart, 2015
                                    Version 2023.1 linked Mon Jun  5 13:27:10 2023


 **********************************************************************************************************************************
 LABEL *                                                                                                                                                                 
  (16 PROC) 64 bit serial version                                                        DATE: 02-Aug-23          TIME: 15:39:16  
 **********************************************************************************************************************************

 SHA1:             9738a14712571edd23541b6d7c4f3a3d766f8287
 **********************************************************************************************************************************

 Memory per process:       805 MW
 Total memory per node:   1074 MW
 Total GA space:           268 MW

 GA preallocation disabled
 GA check enabled

 Geometry recognized as XYZ


 Variable memory set to 805.3 MW

 SETTING BASIS          =    CC-PVDZ
 SETTING CHARGE         =        -1.00000000                                  


 Recomputing integrals since basis changed


 Using spherical harmonics

 Library entry O      S cc-pVDZ              selected for orbital group  1
 Library entry O      P cc-pVDZ              selected for orbital group  1
 Library entry O      D cc-pVDZ              selected for orbital group  1
 Library entry H      S cc-pVDZ              selected for orbital group  2
 Library entry H      P cc-pVDZ              selected for orbital group  2


 PROGRAM * SEWARD (Integral evaluation for generally contracted gaussian basis sets)     Author: Roland Lindh, 1990

 Geometry written to block  1 of record 700


 Point group  C2v 



 ATOMIC COORDINATES

 NR  ATOM    CHARGE       X              Y              Z

   1  O       8.00    0.000000000    0.000000000    0.909000067
   2  H       1.00    0.000000000    0.000000000   -0.909000067

 Bond lengths in Bohr (Angstrom)

 1-2  1.818000133
     ( 0.962044240)

 NUCLEAR CHARGE:                    9
 NUMBER OF PRIMITIVE AOS:          34
 NUMBER OF SYMMETRY AOS:           33
 NUMBER OF CONTRACTIONS:           19   (   10A1  +    4B1  +    4B2  +    1A2  )
 NUMBER OF INNER CORE ORBITALS:     0   (    0A1  +    0B1  +    0B2  +    0A2  )
 NUMBER OF OUTER CORE ORBITALS:     1   (    1A1  +    0B1  +    0B2  +    0A2  )
 NUMBER OF VALENCE ORBITALS:        5   (    3A1  +    1B1  +    1B2  +    0A2  )


 NUCLEAR REPULSION ENERGY    4.40043972

 EXTRA SYMMETRY OF AOS IN SYMMETRY 1:   1 1 1 1 1 1 2 1 1 1

 Eigenvalues of metric

         1 0.253E-01 0.506E-01 0.162E+00 0.202E+00 0.980E+00 0.100E+01 0.101E+01 0.127E+01
         2 0.190E+00 0.575E+00 0.118E+01 0.206E+01
         3 0.190E+00 0.575E+00 0.118E+01 0.206E+01
         4 0.100E+01


 Contracted 2-electron integrals neglected if value below      1.0D-11
 AO integral compression algorithm  1   Integral accuracy      1.0D-11

     0.262 MB (compressed) written to integral file (100.0%)


 NUMBER OF SORTED TWO-ELECTRON INTEGRALS:       5956.     BUFFER LENGTH:  32768
 NUMBER OF SEGMENTS:   1  SEGMENT LENGTH:       5956      RECORD LENGTH: 524288

 Memory used in sort:       0.56 MW

 SORT1 READ        6876. AND WROTE        4699. INTEGRALS IN      1 RECORDS. CPU TIME:     0.00 SEC, REAL TIME:     0.07 SEC
 SORT2 READ        4699. AND WROTE        5956. INTEGRALS IN      1 RECORDS. CPU TIME:     0.00 SEC, REAL TIME:     0.01 SEC

 FILE SIZES:   FILE 1:    30.3 MBYTE,  FILE 4:     4.3 MBYTE,   TOTAL:     34.5 MBYTE

 OPERATOR DM      FOR CENTER  0  COORDINATES:    0.000000    0.000000    0.000000


 **********************************************************************************************************************************
 DATASETS  * FILE   NREC   LENGTH (MB)   RECORD NAMES
              1      19       28.64       500      610      700      900      950      970     1000      129      960     1100   
                                          VAR    BASINP    GEOM    SYMINP    ZMAT    AOBASIS   BASIS     P2S    ABASIS      S 
                                         1400     1410     1200     1210     1080     1600     1650     1300     1700   
                                           T        V       H0       H01     AOSYM     SMH    MOLCAS    ERIS     OPER   

 PROGRAMS   *        TOTAL       INT
 CPU TIMES  *         0.46      0.32
 REAL TIME  *         2.14 SEC
 DISK USED  *        33.25 MB
 **********************************************************************************************************************************


 Program * Restricted Hartree-Fock

 Orbital guess generated from atomic densities. Full valence occupancy:    4   1   1   0

 Initial occupancy:   3   1   1   0

 NELEC=   10   SYM=1   MS2= 0   THRE=1.0D-08   THRD=3.2D-06   THRG=3.2D-06  HFMA2=F  DIIS_START=2   DIIS_MAX=10   DIIS_INCORE=F

 Level shifts:    0.00 (CLOSED)    0.00 (OPEN)    0.30 (GAP_MIN)

 ITER           ETOT              DE          GRAD        DDIFF     DIIS  NEXP   TIME(IT)  TIME(TOT)  DIAG
   1      -75.21772158     -75.21772158     0.00D+00     0.48D+00     0     0       0.00      0.00    start
   2      -75.29279710      -0.07507552     0.73D-01     0.16D+00     1     0       0.00      0.00    diag
   3      -75.33046975      -0.03767265     0.45D-01     0.58D-01     2     0       0.00      0.00    diag
   4      -75.33080392      -0.00033417     0.24D-02     0.53D-02     3     0       0.00      0.00    diag
   5      -75.33085253      -0.00004861     0.81D-03     0.25D-02     4     0       0.00      0.00    diag
   6      -75.33085460      -0.00000207     0.15D-03     0.63D-03     5     0       0.00      0.00    diag
   7      -75.33085464      -0.00000004     0.25D-04     0.11D-03     6     0       0.01      0.01    diag
   8      -75.33085464      -0.00000000     0.19D-05     0.73D-05     7     0       0.00      0.01    fixocc
   9      -75.33085464      -0.00000000     0.21D-06     0.62D-06     8     0       0.00      0.01    diag
  10      -75.33085464       0.00000000     0.26D-07     0.59D-07     0     0       0.00      0.01    diag/orth

 Final occupancy:   3   1   1   0

 !RHF STATE 1.1 Energy                -75.330854644422
  RHF One-electron energy            -117.261979999369
  RHF Two-electron energy              37.530685633772
  RHF Kinetic energy                   75.573211720469
  RHF Nuclear energy                    4.400439721175
  RHF Virial quotient                  -0.996793082224

 !RHF STATE 1.1 Dipole moment           0.00000000     0.00000000    -1.23585009
 Dipole moment /Debye                   0.00000000     0.00000000    -3.14121761

 Orbital energies:

           1.1          2.1          3.1          4.1          5.1
    -20.069892    -0.813800    -0.162228     0.508535     1.218252

           1.2          2.2          3.2
     -0.027192     1.629848     1.953745

           1.3          2.3          3.3
     -0.027192     1.629848     1.953745

           1.4
      3.445197


 HOMO      1.3    -0.027192 =      -0.7399eV
 LUMO      4.1     0.508535 =      13.8380eV
 LUMO-HOMO         0.535727 =      14.5779eV

 Orbitals saved in record  2100.2


 **********************************************************************************************************************************
 DATASETS  * FILE   NREC   LENGTH (MB)   RECORD NAMES
              1      19       28.64       500      610      700      900      950      970     1000      129      960     1100   
                                          VAR    BASINP    GEOM    SYMINP    ZMAT    AOBASIS   BASIS     P2S    ABASIS      S 
                                         1400     1410     1200     1210     1080     1600     1650     1300     1700   
                                           T        V       H0       H01     AOSYM     SMH    MOLCAS    ERIS     OPER   

              2       4        0.39       700     1000      520     2100   
                                         GEOM     BASIS   MCVARS     RHF  

 PROGRAMS   *        TOTAL    HF-SCF       INT
 CPU TIMES  *         0.47      0.01      0.32
 REAL TIME  *         2.30 SEC
 DISK USED  *        33.25 MB
 **********************************************************************************************************************************


 PROGRAM * MP4 (Closed-shell)     Authors: C. Hampel, H.-J. Werner, 1991, M. Deegan, P.J. Knowles, 1992


 Convergence thresholds:  THRVAR = 1.00D-08  THRDEN = 1.00D-06

 MP4(T)     terms to be evaluated (factor= 0.000)


 Number of core orbitals:           1 (   1   0   0   0 )
 Number of closed-shell orbitals:   4 (   2   1   1   0 )
 Number of external orbitals:      14 (   7   3   3   1 )

 Molecular orbitals read from record     2100.2  Type=RHF/CANONICAL  

 Number of N-1 electron functions:               4
 Number of N-2 electron functions:              10
 Number of singly external CSFs:                20
 Number of doubly external CSFs:               456
 Total number of CSFs:                         477

 Length of J-op  integral file:               0.00 MB
 Length of K-op  integral file:               0.07 MB

 Memory could be reduced to 0.06 Mwords without degradation in triples

 Integral transformation finished. Total CPU:   0.00 sec, npass=  1  Memory used:   0.07 MW

 Reference energy:                    -75.33085464

                        CORR.ENERGY   TOTAL ENERGY   ENERGY CHANGE
 MP2:                   -0.19450898   -75.52536362    -0.19450898

 SCS-MP2 correlation energy:           -0.18952677   (PS=  1.200000  PT=  0.333333)
 SCS-MP2 total energy:                -75.52038141

 MP3(D):                -0.19932087   -75.53017551    -0.00481189
 MP4(DQ):               -0.20107893   -75.53193357    -0.00175806
 MP4(SDQ):              -0.20163816   -75.53249280    -0.00055923

 Norm of t1 vector:      0.01538612      S-energy:    -0.00055923      T1 diagnostic:  0.00384653


 Total CPU time for triples:      0.00 sec


 RESULTS
 =======

  Reference energy                    -75.330854644422
  MP4(SDQ) singlet pair energy         -0.130272268682
  MP4(SDQ) triplet pair energy         -0.070806661757
  MP4(SDQ) correlation energy          -0.201638160128

  Triples contribution                 -0.002211650616
  Total correlation energy             -0.203849810744

  MP4(SDQ) total energy               -75.532492804550
 !MP4(SDTQ) total energy              -75.534704455167

 Timing summary (sec):

 STEP                 CPU(USER)    SYS     CPU(TOT)    WALL
 Transformation          0.01      0.01      0.02      0.43
 CCSD iterations         0.88      0.00      0.88      0.01

 Program statistics:

 Available memory in ccsd:               805306301
 Min. memory needed in ccsd:                  3406
 Max. memory used in ccsd:                    3548
 Max. memory used in cckext:                 36346 ( 1 integral passes)



 **********************************************************************************************************************************
 DATASETS  * FILE   NREC   LENGTH (MB)   RECORD NAMES
              1      20       28.67       500      610      700      900      950      970     1000      129      960     1100   
                                          VAR    BASINP    GEOM    SYMINP    ZMAT    AOBASIS   BASIS     P2S    ABASIS      S 
                                         1400     1410     1200     1210     1080     1600     1650     1300     1700     1380   
                                           T        V       H0       H01     AOSYM     SMH    MOLCAS    ERIS     OPER     JKOP   

              2       4        0.39       700     1000      520     2100   
                                         GEOM     BASIS   MCVARS     RHF  

 PROGRAMS   *        TOTAL       MP4    HF-SCF       INT
 CPU TIMES  *         0.53      0.06      0.01      0.32
 REAL TIME  *         3.08 SEC
 DISK USED  *        33.25 MB
 **********************************************************************************************************************************

 Dump information in style XML to xml output                                                                      

 Orbitals will not be exported.

 **********************************************************************************************************************************

 MP4/cc-pVDZ energy=    -75.534704455167

             MP4          HF-SCF
    -75.53470446    -75.33085464
 **********************************************************************************************************************************
 Molpro calculation terminated
