
 Working directory              : /home/jovyan/scratch/molpro.lhAmYLdDcB/
 Global scratch directory       : /home/jovyan/scratch/molpro.lhAmYLdDcB/
 Wavefunction directory         : /home/jovyan/wfu/
 Main file repository           : /home/jovyan/scratch/molpro.lhAmYLdDcB/

 id        : cardiff

 Nodes                nprocs
 jupyter-c-2efrancisan    1
 GA implementation: MPI file
 GA implementation (serial work in mppx): MPI file

 Using customized tuning parameters: mindgm=1; mindgv=20; mindgc=4; mindgr=1; noblas=0; minvec=7
 default implementation of scratch files=df  


 Variables initialized (1031), CPU time= 0.00 sec
 
 
 
 geometry={
 3
    O   0.00000133070773      0.00005291002884     -0.00000001669992
    H   0.93566024418328      0.00005338458559      0.00000000834999
    H   -0.93566242742156      0.00005248979354      0.00000000834993
 }
 basis=cc-pVDZ
 angstrom
 
 
 hf; mp4
 
 
 
 {put,xml;noorbitals,nobasis}
 Commands initialized (841), CPU time= 0.01 sec, 704 directives.
 Default parameters read. Elapsed time= 0.08 sec

 Checking input...
 Passed
1


                                         ***  PROGRAM SYSTEM MOLPRO  ***
                                       Copyright, TTI GmbH Stuttgart, 2015
                                    Version 2023.1 linked Mon Jun  5 13:27:10 2023


 **********************************************************************************************************************************
 LABEL *                                                                                                                                                                 
  (16 PROC) 64 bit serial version                                                        DATE: 02-Aug-23          TIME: 15:30:31  
 **********************************************************************************************************************************

 SHA1:             9738a14712571edd23541b6d7c4f3a3d766f8287
 **********************************************************************************************************************************

 Memory per process:       805 MW
 Total memory per node:   1074 MW
 Total GA space:           268 MW

 GA preallocation disabled
 GA check enabled

 Geometry recognized as XYZ


 Variable memory set to 805.3 MW

 SETTING BASIS          =    CC-PVDZ


 Recomputing integrals since basis changed


 Using spherical harmonics

 Library entry O      S cc-pVDZ              selected for orbital group  1
 Library entry O      P cc-pVDZ              selected for orbital group  1
 Library entry O      D cc-pVDZ              selected for orbital group  1
 Library entry H      S cc-pVDZ              selected for orbital group  2
 Library entry H      P cc-pVDZ              selected for orbital group  2


 PROGRAM * SEWARD (Integral evaluation for generally contracted gaussian basis sets)     Author: Roland Lindh, 1990

 Geometry written to block  1 of record 700


 Point group  Cs  



 ATOMIC COORDINATES

 NR  ATOM    CHARGE       X              Y              Z

   1  O       8.00    0.000002515    0.000099985    0.000000000
   2  H       1.00    1.768141607    0.000100882    0.000000000
   3  H       1.00   -1.768145733    0.000099191    0.000000000

 Bond lengths in Bohr (Angstrom)

 1-2  1.768139093  1-3  1.768148248
     ( 0.935658913)     ( 0.935663758)

 Bond angles

  2-1-3  179.99999744

 NUCLEAR CHARGE:                   10
 NUMBER OF PRIMITIVE AOS:          41
 NUMBER OF SYMMETRY AOS:           40
 NUMBER OF CONTRACTIONS:           24   (   18A'  +    6A"  )
 NUMBER OF INNER CORE ORBITALS:     0   (    0A'  +    0A"  )
 NUMBER OF OUTER CORE ORBITALS:     1   (    1A'  +    0A"  )
 NUMBER OF VALENCE ORBITALS:        6   (    5A'  +    1A"  )


 NUCLEAR REPULSION ENERGY    9.33182087

 Eigenvalues of metric

         1 0.222E-01 0.277E-01 0.446E-01 0.101E+00 0.180E+00 0.184E+00 0.194E+00 0.525E+00
         2 0.184E+00 0.525E+00 0.585E+00 0.100E+01 0.146E+01 0.224E+01


 Contracted 2-electron integrals neglected if value below      1.0D-11
 AO integral compression algorithm  1   Integral accuracy      1.0D-11

     0.262 MB (compressed) written to integral file (100.0%)


 NUMBER OF SORTED TWO-ELECTRON INTEGRALS:      25710.     BUFFER LENGTH:  32768
 NUMBER OF SEGMENTS:   1  SEGMENT LENGTH:      25710      RECORD LENGTH: 524288

 Memory used in sort:       0.58 MW

 SORT1 READ       31790. AND WROTE       23125. INTEGRALS IN      1 RECORDS. CPU TIME:     0.01 SEC, REAL TIME:     0.01 SEC
 SORT2 READ       23125. AND WROTE       25710. INTEGRALS IN      1 RECORDS. CPU TIME:     0.00 SEC, REAL TIME:     0.01 SEC

 FILE SIZES:   FILE 1:    30.3 MBYTE,  FILE 4:     4.3 MBYTE,   TOTAL:     34.5 MBYTE

 OPERATOR DM      FOR CENTER  0  COORDINATES:    0.000000    0.000000    0.000000


 **********************************************************************************************************************************
 DATASETS  * FILE   NREC   LENGTH (MB)   RECORD NAMES
              1      19       28.74       500      610      700      900      950      970     1000      129      960     1100   
                                          VAR    BASINP    GEOM    SYMINP    ZMAT    AOBASIS   BASIS     P2S    ABASIS      S 
                                         1400     1410     1200     1210     1080     1600     1650     1300     1700   
                                           T        V       H0       H01     AOSYM     SMH    MOLCAS    ERIS     OPER   

 PROGRAMS   *        TOTAL       INT
 CPU TIMES  *         0.50      0.36
 REAL TIME  *         1.51 SEC
 DISK USED  *        33.29 MB
 **********************************************************************************************************************************


 Program * Restricted Hartree-Fock

 Orbital guess generated from atomic densities. Full valence occupancy:    6   1

 Initial occupancy:   4   1

 NELEC=   10   SYM=1   MS2= 0   THRE=1.0D-08   THRD=3.2D-06   THRG=3.2D-06  HFMA2=F  DIIS_START=2   DIIS_MAX=10   DIIS_INCORE=F

 Level shifts:    0.00 (CLOSED)    0.00 (OPEN)    0.30 (GAP_MIN)

 ITER           ETOT              DE          GRAD        DDIFF     DIIS  NEXP   TIME(IT)  TIME(TOT)  DIAG
   1      -75.94048554     -75.94048554     0.00D+00     0.31D+00     0     0       0.00      0.00    start
   2      -75.96293529      -0.02244976     0.27D-01     0.56D-01     1     0       0.00      0.00    diag
   3      -75.97098163      -0.00804634     0.14D-01     0.18D-01     2     0       0.00      0.00    diag
   4      -75.97102765      -0.00004602     0.91D-03     0.22D-02     3     0       0.00      0.00    diag
   5      -75.97102818      -0.00000053     0.78D-04     0.17D-03     4     0       0.00      0.00    diag
   6      -75.97102820      -0.00000001     0.10D-04     0.26D-04     5     0       0.00      0.00    diag
   7      -75.97102820      -0.00000000     0.15D-05     0.47D-05     6     0       0.00      0.00    diag
   8      -75.97102820      -0.00000000     0.14D-06     0.31D-06     7     0       0.00      0.00    fixocc
   9      -75.97102820       0.00000000     0.14D-07     0.23D-07     0     0       0.01      0.01    diag

 Final occupancy:   4   1

 !RHF STATE 1.1 Energy                -75.971028197898
  RHF One-electron energy            -123.580129124688
  RHF Two-electron energy              38.277280057579
  RHF Kinetic energy                   75.971885532395
  RHF Nuclear energy                    9.331820869211
  RHF Virial quotient                  -0.999988715108

 !RHF STATE 1.1 Dipole moment          -0.00000564     0.00000005     0.00000000
 Dipole moment /Debye                  -0.00001434     0.00000013     0.00000000

 Orbital energies:

           1.1          2.1          3.1          4.1          5.1          6.1
    -20.501464    -1.301933    -0.775393    -0.466997     0.185104     0.253686

           1.2          2.2          3.2
     -0.466997     1.220824     1.385819


 HOMO      1.2    -0.466997 =     -12.7076eV
 LUMO      5.1     0.185104 =       5.0369eV
 LUMO-HOMO         0.652101 =      17.7446eV

 Orbitals saved in record  2100.2


 **********************************************************************************************************************************
 DATASETS  * FILE   NREC   LENGTH (MB)   RECORD NAMES
              1      19       28.74       500      610      700      900      950      970     1000      129      960     1100   
                                          VAR    BASINP    GEOM    SYMINP    ZMAT    AOBASIS   BASIS     P2S    ABASIS      S 
                                         1400     1410     1200     1210     1080     1600     1650     1300     1700   
                                           T        V       H0       H01     AOSYM     SMH    MOLCAS    ERIS     OPER   

              2       4        0.41       700     1000      520     2100   
                                         GEOM     BASIS   MCVARS     RHF  

 PROGRAMS   *        TOTAL    HF-SCF       INT
 CPU TIMES  *         0.52      0.02      0.36
 REAL TIME  *         1.58 SEC
 DISK USED  *        33.29 MB
 **********************************************************************************************************************************


 PROGRAM * MP4 (Closed-shell)     Authors: C. Hampel, H.-J. Werner, 1991, M. Deegan, P.J. Knowles, 1992


 Convergence thresholds:  THRVAR = 1.00D-08  THRDEN = 1.00D-06

 MP4(T)     terms to be evaluated (factor= 0.000)


 Number of core orbitals:           1 (   1   0 )
 Number of closed-shell orbitals:   4 (   3   1 )
 Number of external orbitals:      19 (  14   5 )

 Molecular orbitals read from record     2100.2  Type=RHF/CANONICAL  

 Number of N-1 electron functions:               4
 Number of N-2 electron functions:              10
 Number of singly external CSFs:                47
 Number of doubly external CSFs:              1563
 Total number of CSFs:                        1611

 Length of J-op  integral file:               0.00 MB
 Length of K-op  integral file:               0.09 MB

 Memory could be reduced to 0.08 Mwords without degradation in triples

 Integral transformation finished. Total CPU:   0.00 sec, npass=  1  Memory used:   0.09 MW

 Reference energy:                    -75.97102820

                        CORR.ENERGY   TOTAL ENERGY   ENERGY CHANGE
 MP2:                   -0.20023348   -76.17126168    -0.20023348

 SCS-MP2 correlation energy:           -0.19559270   (PS=  1.200000  PT=  0.333333)
 SCS-MP2 total energy:                -76.16662090

 MP3(D):                -0.20667358   -76.17770177    -0.00644010
 MP4(DQ):               -0.20815117   -76.17917936    -0.00147759
 MP4(SDQ):              -0.20866639   -76.17969458    -0.00051522

 Norm of t1 vector:      0.01616879      S-energy:    -0.00051522      T1 diagnostic:  0.00404220


 Total CPU time for triples:      0.01 sec


 RESULTS
 =======

  Reference energy                    -75.971028197898
  MP4(SDQ) singlet pair energy         -0.135418000497
  MP4(SDQ) triplet pair energy         -0.072733165232
  MP4(SDQ) correlation energy          -0.208666386278

  Triples contribution                 -0.002565575640
  Total correlation energy             -0.211231961918

  MP4(SDQ) total energy               -76.179694584177
 !MP4(SDTQ) total energy              -76.182260159816

 Timing summary (sec):

 STEP                 CPU(USER)    SYS     CPU(TOT)    WALL
 CCSD iterations         0.80      0.01      0.81      0.01
 Triples                 0.01      0.00      0.01      0.01

 Program statistics:

 Available memory in ccsd:               805306300
 Min. memory needed in ccsd:                  9863
 Max. memory used in ccsd:                   10581
 Max. memory used in cckext:                 43562 ( 1 integral passes)



 **********************************************************************************************************************************
 DATASETS  * FILE   NREC   LENGTH (MB)   RECORD NAMES
              1      20       28.84       500      610      700      900      950      970     1000      129      960     1100   
                                          VAR    BASINP    GEOM    SYMINP    ZMAT    AOBASIS   BASIS     P2S    ABASIS      S 
                                         1400     1410     1200     1210     1080     1600     1650     1300     1700     1380   
                                           T        V       H0       H01     AOSYM     SMH    MOLCAS    ERIS     OPER     JKOP   

              2       4        0.41       700     1000      520     2100   
                                         GEOM     BASIS   MCVARS     RHF  

 PROGRAMS   *        TOTAL       MP4    HF-SCF       INT
 CPU TIMES  *         0.57      0.05      0.02      0.36
 REAL TIME  *         1.69 SEC
 DISK USED  *        33.29 MB
 **********************************************************************************************************************************

 Dump information in style XML to xml output                                                                      

 Orbitals will not be exported.

 **********************************************************************************************************************************

 MP4/cc-pVDZ energy=    -76.182260159816

             MP4          HF-SCF
    -76.18226016    -75.97102820
 **********************************************************************************************************************************
 Molpro calculation terminated
