
 Working directory              : /home/jovyan/scratch/molpro.tmdA6HmRHx/
 Global scratch directory       : /home/jovyan/scratch/molpro.tmdA6HmRHx/
 Wavefunction directory         : /home/jovyan/wfu/
 Main file repository           : /home/jovyan/scratch/molpro.tmdA6HmRHx/

 id        : cardiff

 Nodes                nprocs
 jupyter-c-2efrancisan    1
 GA implementation: MPI file
 GA implementation (serial work in mppx): MPI file

 Using customized tuning parameters: mindgm=1; mindgv=20; mindgc=4; mindgr=1; noblas=0; minvec=7
 default implementation of scratch files=df  


 Variables initialized (1031), CPU time= 0.01 sec
 
 
 
 geometry={
           13
     C         -0.01452154     -0.75798489      1.30942047
     C         -0.01452154     -0.75798489     -1.30942047
     C         -0.01452154      0.65683562      1.21164043
     C         -0.01452154      0.65683562     -1.21164043
     C         -0.17284160      1.33447586      0.00000000
     H          0.46798863     -1.05717499      0.00000000
     H          0.48511863     -1.18468504      2.18168078
     H          0.48511863     -1.18468504     -2.18168078
     H         -0.92708187     -1.30284508      1.06870038
     H         -0.92708187     -1.30284508     -1.06870038
     H          0.37512860      1.24016583      2.04603073
     H          0.37512860      1.24016583     -2.04603073
     H         -0.10339158      2.41972625      0.00000000
 }
 basis=cc-pVDZ
 angstrom
 
 
 hf; papt;mp2
 
 
 
 {put,xml;noorbitals,nobasis}
 Commands initialized (841), CPU time= 0.01 sec, 704 directives.
 Default parameters read. Elapsed time= 0.08 sec

 Checking input...
 Passed
1


                                         ***  PROGRAM SYSTEM MOLPRO  ***
                                       Copyright, TTI GmbH Stuttgart, 2015
                                    Version 2023.1 linked Mon Jun  5 13:27:10 2023


 **********************************************************************************************************************************
 LABEL *                                                                                                                                                                 
  (16 PROC) 64 bit serial version                                                        DATE: 03-Aug-23          TIME: 10:47:19  
 **********************************************************************************************************************************

 SHA1:             9738a14712571edd23541b6d7c4f3a3d766f8287
 **********************************************************************************************************************************

 Memory per process:       805 MW
 Total memory per node:   1074 MW
 Total GA space:           268 MW

 GA preallocation disabled
 GA check enabled

 Geometry recognized as XYZ


 Variable memory set to 805.3 MW

 SETTING BASIS          =    CC-PVDZ


 Recomputing integrals since basis changed


 Using spherical harmonics

 Library entry C      S cc-pVDZ              selected for orbital group  1
 Library entry C      P cc-pVDZ              selected for orbital group  1
 Library entry C      D cc-pVDZ              selected for orbital group  1
 Library entry H      S cc-pVDZ              selected for orbital group  2
 Library entry H      P cc-pVDZ              selected for orbital group  2


 PROGRAM * SEWARD (Integral evaluation for generally contracted gaussian basis sets)     Author: Roland Lindh, 1990

 Geometry written to block  1 of record 700


 Point group  Cs  



 ATOMIC COORDINATES

 NR  ATOM    CHARGE       X              Y              Z

   1  C       6.00   -0.027441734   -1.432383849    2.474446070
   2  C       6.00   -0.027441734   -1.432383849   -2.474446070
   3  C       6.00   -0.027441734    1.241239431    2.289668574
   4  C       6.00   -0.027441734    1.241239431   -2.289668574
   5  C       6.00   -0.326623287    2.521793895    0.000000000
   6  H       1.00    0.884370340   -1.997771197    0.000000000
   7  H       1.00    0.916741349   -2.238730270    4.122779166
   8  H       1.00    0.916741349   -2.238730270   -4.122779166
   9  H       1.00   -1.751930829   -2.462020384    2.019551027
  10  H       1.00   -1.751930829   -2.462020384   -2.019551027
  11  H       1.00    0.708890316    2.343573768    3.866437722
  12  H       1.00    0.708890316    2.343573768   -3.866437722
  13  H       1.00   -0.195381770    4.572619909    0.000000000

 Bond lengths in Bohr (Angstrom)

 1-3  2.680000777  1-6  2.697025670  1-7  2.063656521  1-9  2.059355126  2-4  2.680000777
     ( 1.418195336)     ( 1.427204522)     ( 1.092040002)     ( 1.089763802)     ( 1.418195336)

  2- 6  2.697025670   2- 8  2.063656521   2-10  2.059355126   3- 5  2.640437751   3-11  2.059982239
       ( 1.427204522)       ( 1.092040002)       ( 1.089763802)       ( 1.397259485)       ( 1.090095656)

  4- 5  2.640437751   4-12  2.059982239   5-13  2.055021089
       ( 1.397259485)       ( 1.090095656)       ( 1.087470328)

 Bond angles

  1- 3- 5  122.92983423   1- 3-11  118.75538171   1- 6- 2  133.11857628   2- 4- 5  122.92983423

  2- 4-12  118.75538171   3- 1- 6   98.38812662   3- 1- 7  116.41551821   3- 1- 9  118.91820303

  3- 5- 4  120.25937359   3- 5-13  118.47347191   4- 2- 6   98.38812662   4- 2- 8  116.41551821

  4- 2-10  118.91820303   4- 5-13  118.47347191   5- 3-11  116.40579220   5- 4-12  116.40579220

  6- 1- 7  119.75102425   6- 1- 9   88.60364094   6- 2- 8  119.75102425   6- 2-10   88.60364094

  7- 1- 9  111.35879906   8- 2-10  111.35879906

 NUCLEAR CHARGE:                   38
 NUMBER OF PRIMITIVE AOS:         191
 NUMBER OF SYMMETRY AOS:          186
 NUMBER OF CONTRACTIONS:          110   (   61A'  +   49A"  )
 NUMBER OF INNER CORE ORBITALS:     0   (    0A'  +    0A"  )
 NUMBER OF OUTER CORE ORBITALS:     5   (    3A'  +    2A"  )
 NUMBER OF VALENCE ORBITALS:       28   (   16A'  +   12A"  )


 NUCLEAR REPULSION ENERGY  164.15366010

 Eigenvalues of metric

         1 0.151E-02 0.452E-02 0.121E-01 0.145E-01 0.248E-01 0.274E-01 0.282E-01 0.328E-01
         2 0.271E-02 0.303E-02 0.133E-01 0.172E-01 0.312E-01 0.336E-01 0.380E-01 0.437E-01


 Contracted 2-electron integrals neglected if value below      1.0D-11
 AO integral compression algorithm  1   Integral accuracy      1.0D-11

     45.351 MB (compressed) written to integral file ( 51.4%)


 NUMBER OF SORTED TWO-ELECTRON INTEGRALS:    9489236.     BUFFER LENGTH:  32768
 NUMBER OF SEGMENTS:   1  SEGMENT LENGTH:    9489236      RECORD LENGTH: 524288

 Memory used in sort:      10.05 MW

 SORT1 READ    11083897. AND WROTE     9095051. INTEGRALS IN     27 RECORDS. CPU TIME:     0.13 SEC, REAL TIME:     0.26 SEC
 SORT2 READ     9095051. AND WROTE     9489236. INTEGRALS IN    173 RECORDS. CPU TIME:     0.26 SEC, REAL TIME:     0.31 SEC

 FILE SIZES:   FILE 1:    75.9 MBYTE,  FILE 4:   113.3 MBYTE,   TOTAL:    189.2 MBYTE

 OPERATOR DM      FOR CENTER  0  COORDINATES:    0.000000    0.000000    0.000000


 **********************************************************************************************************************************
 DATASETS  * FILE   NREC   LENGTH (MB)   RECORD NAMES
              1      19       67.04       500      610      700      900      950      970     1000      129      960     1100   
                                          VAR    BASINP    GEOM    SYMINP    ZMAT    AOBASIS   BASIS     P2S    ABASIS      S 
                                         1400     1410     1200     1210     1080     1600     1650     1300     1700   
                                           T        V       H0       H01     AOSYM     SMH    MOLCAS    ERIS     OPER   

 PROGRAMS   *        TOTAL       INT
 CPU TIMES  *         3.03      2.90
 REAL TIME  *         4.32 SEC
 DISK USED  *       180.96 MB
 **********************************************************************************************************************************


 Program * Restricted Hartree-Fock

 Orbital guess generated from atomic densities. Full valence occupancy:   19  14

 Initial occupancy:  11   8

 NELEC=   38   SYM=1   MS2= 0   THRE=1.0D-08   THRD=3.2D-06   THRG=3.2D-06  HFMA2=F  DIIS_START=2   DIIS_MAX=10   DIIS_INCORE=F

 Level shifts:    0.00 (CLOSED)    0.00 (OPEN)    0.30 (GAP_MIN)

 ITER           ETOT              DE          GRAD        DDIFF     DIIS  NEXP   TIME(IT)  TIME(TOT)  DIAG
   1     -193.82452092    -193.82452092     0.00D+00     0.14D+00     0     0       0.07      0.13    start
   2     -193.87482771      -0.05030679     0.60D-02     0.14D-01     1     0       0.07      0.20    diag
   3     -193.88052845      -0.00570074     0.23D-02     0.48D-02     2     0       0.06      0.26    diag
   4     -193.88153846      -0.00101001     0.83D-03     0.19D-02     3     0       0.07      0.33    diag
   5     -193.88159145      -0.00005299     0.21D-03     0.41D-03     4     0       0.06      0.39    diag
   6     -193.88160053      -0.00000908     0.61D-04     0.18D-03     5     0       0.07      0.46    diag
   7     -193.88160221      -0.00000169     0.24D-04     0.63D-04     6     0       0.06      0.52    diag
   8     -193.88160268      -0.00000047     0.10D-04     0.41D-04     7     0       0.06      0.58    fixocc
   9     -193.88160276      -0.00000008     0.37D-05     0.17D-04     8     0       0.07      0.65    diag
  10     -193.88160278      -0.00000001     0.18D-05     0.81D-05     9     0       0.06      0.71    diag/orth
  11     -193.88160278      -0.00000000     0.54D-06     0.21D-05     9     0       0.07      0.78    diag
  12     -193.88160278      -0.00000000     0.17D-06     0.36D-06     0     0       0.06      0.84    diag

 Final occupancy:  11   8

 !RHF STATE 1.1 Energy               -193.881602777214
  RHF One-electron energy            -585.324830546310
  RHF Two-electron energy             227.289567668763
  RHF Kinetic energy                  193.586664967312
  RHF Nuclear energy                  164.153660100333
  RHF Virial quotient                  -1.001523544041

 !RHF STATE 1.1 Dipole moment           0.07009625     0.02504819     0.00000000
 Dipole moment /Debye                   0.17816690     0.06366615     0.00000000

 Orbital energies:

           1.1          2.1          3.1          4.1          5.1          6.1          7.1          8.1          9.1         10.1
    -11.247157   -11.232773   -11.232499    -1.113147    -0.939116    -0.722691    -0.672820    -0.564870    -0.530722    -0.514370

          11.1         12.1         13.1
     -0.351519     0.166501     0.191197

           1.2          2.2          3.2          4.2          5.2          6.2          7.2          8.2          9.2         10.2
    -11.247121   -11.232769    -1.005162    -0.805870    -0.587624    -0.575454    -0.495837    -0.301329     0.108392     0.222125


 HOMO      8.2    -0.301329 =      -8.1996eV
 LUMO      9.2     0.108392 =       2.9495eV
 LUMO-HOMO         0.409722 =      11.1491eV

 Orbitals saved in record  2100.2


 **********************************************************************************************************************************
 DATASETS  * FILE   NREC   LENGTH (MB)   RECORD NAMES
              1      19       67.04       500      610      700      900      950      970     1000      129      960     1100   
                                          VAR    BASINP    GEOM    SYMINP    ZMAT    AOBASIS   BASIS     P2S    ABASIS      S 
                                         1400     1410     1200     1210     1080     1600     1650     1300     1700   
                                           T        V       H0       H01     AOSYM     SMH    MOLCAS    ERIS     OPER   

              2       4        0.68       700     1000      520     2100   
                                         GEOM     BASIS   MCVARS     RHF  

 PROGRAMS   *        TOTAL    HF-SCF       INT
 CPU TIMES  *         3.87      0.84      2.90
 REAL TIME  *         5.31 SEC
 DISK USED  *       180.96 MB
 **********************************************************************************************************************************


 PROGRAM * PAPT (Closed-shell)     Authors: C. Hampel, H.-J. Werner, 1991, P.J. Knowles, 2021


 Convergence thresholds:  THRVAR = 1.00D-08  THRDEN = 1.00D-06

 Number of core orbitals:           5 (   3   2 )
 Number of closed-shell orbitals:  14 (   8   6 )
 Number of external orbitals:      91 (  50  41 )

 Molecular orbitals read from record     2100.2  Type=RHF/CANONICAL  

 Number of N-1 electron functions:              14
 Number of N-2 electron functions:             105
 Number of singly external CSFs:               646
 Number of doubly external CSFs:            406487
 Total number of CSFs:                      407134

 Length of J-op  integral file:               0.00 MB
 Length of K-op  integral file:               0.48 MB

 Integral transformation finished. Total CPU:   0.18 sec, npass=  1  Memory used:   0.83 MW

 Reference energy:                   -193.88160278

                        CORR.ENERGY   TOTAL ENERGY   ENERGY CHANGE
 MP2:                   -0.71674667  -194.59834944    -0.71674667

 SCS-MP2 correlation energy:           -0.70355681   (PS=  1.200000  PT=  0.333333)
 SCS-MP2 total energy:               -194.58515959
 Iteration:   1     0.2879D+00
 Iteration:   2     0.2868D+01
 Iteration:   3     0.8593D-01
 Iteration:   4     0.1349D+01
 Iteration:   5     0.2407D-01
 Iteration:   6     0.3703D-01
 Iteration:   7     0.1274D-01
 Iteration:   8     0.4926D-02
 Iteration:   9     0.8833D-01
 Iteration:  10     0.1379D-02
 Iteration:  11     0.1596D-02
 Iteration:  12     0.6482D-03
 Iteration:  13     0.3654D-03
 Iteration:  14     0.9035D-03
 Iteration:  15     0.1183D-03
 Iteration:  16     0.2765D-03
 Iteration:  17     0.3957D-04
 PAPT operator written to  7000.1
 PAPT orbitals and eigenvalues written to  7000.2

 MP3(D):                -0.75432527  -194.63592804    -0.03757860



 RESULTS
 =======

  Reference energy                   -193.881602777214
  MP3 singlet pair energy              -0.501314583598
  MP3 triplet pair energy              -0.253010681641
  MP3 correlation energy               -0.754325265238

 !MP3 total energy                   -194.635928042452

 Timing summary (sec):

 STEP                 CPU(USER)    SYS     CPU(TOT)    WALL
 Transformation          0.20      0.03      0.23      0.40
 CCSD iterations         5.88      0.05      5.93      1.86

 Program statistics:

 Available memory in ccsd:               805305573
 Min. memory needed in ccsd:               1101786
 Max. memory used in ccsd:                 1452705
 Max. memory used in cckext:               1526862 ( 1 integral passes)



 **********************************************************************************************************************************
 DATASETS  * FILE   NREC   LENGTH (MB)   RECORD NAMES
              1      21       74.46       500      610      700      900      950      970     1000      129      960     1100   
                                          VAR    BASINP    GEOM    SYMINP    ZMAT    AOBASIS   BASIS     P2S    ABASIS      S 
                                         1400     1410     1200     1210     1080     1600     1650     1300     1700     1380   
                                           T        V       H0       H01     AOSYM     SMH    MOLCAS    ERIS     OPER     JKOP   
                                         7000   
                                        PAPT AO    

              2       5        0.92       700     1000      520     2100     7000   
                                         GEOM     BASIS   MCVARS     RHF     PAPT   

 PROGRAMS   *        TOTAL      PAPT    HF-SCF       INT
 CPU TIMES  *         5.87      2.00      0.84      2.90
 REAL TIME  *         7.61 SEC
 DISK USED  *       180.96 MB
 **********************************************************************************************************************************


 PROGRAM * MP2 (Closed-shell)     Authors: C. Hampel, H.-J. Werner, 1991, M. Deegan, P.J. Knowles, 1992


 Convergence thresholds:  THRVAR = 1.00D-08  THRDEN = 1.00D-06

 Number of core orbitals:           5 (   3   2 )
 Number of closed-shell orbitals:  14 (   8   6 )
 Number of external orbitals:      91 (  50  41 )

 Molecular orbitals read from record     7000.2  Type=PAPT/CANONICAL (state 1.1)

 Number of N-1 electron functions:              14
 Number of N-2 electron functions:             105
 Number of singly external CSFs:               646
 Number of doubly external CSFs:            406487
 Total number of CSFs:                      407134

 Length of J-op  integral file:               0.00 MB
 Length of K-op  integral file:               0.48 MB

 Integral transformation finished. Total CPU:   0.19 sec, npass=  1  Memory used:   0.83 MW
 Orbital energies read from record       7000.2  Type=PAPT/CANONICAL (state 1.1)

 Memory needed for MP2:                      0.03 MW

 SCS-MP2 correlation energy:           -0.754259273713   (PS=  1.200000  PT=  0.333333)
 SCS-MP2 total energy:               -194.635862050927


  Reference energy                   -193.881602777214
  MP2 singlet pair energy              -0.483860318617
  MP2 triplet pair energy              -0.279043218277
  MP2 correlation energy               -0.762903536894

 !MP2 total energy                   -194.644506314108


 **********************************************************************************************************************************
 DATASETS  * FILE   NREC   LENGTH (MB)   RECORD NAMES
              1      21       74.46       500      610      700      900      950      970     1000      129      960     1100   
                                          VAR    BASINP    GEOM    SYMINP    ZMAT    AOBASIS   BASIS     P2S    ABASIS      S 
                                         1400     1410     1200     1210     1080     1600     1650     1300     1700     1380   
                                           T        V       H0       H01     AOSYM     SMH    MOLCAS    ERIS     OPER     JKOP   
                                         7000   
                                        PAPT AO    

              2       5        0.92       700     1000      520     2100     7000   
                                         GEOM     BASIS   MCVARS     RHF     PAPT   

 PROGRAMS   *        TOTAL       MP2      PAPT    HF-SCF       INT
 CPU TIMES  *         6.22      0.35      2.00      0.84      2.90
 REAL TIME  *         8.09 SEC
 DISK USED  *       180.96 MB
 **********************************************************************************************************************************

 Dump information in style XML to xml output                                                                      

 Orbitals will not be exported.

 **********************************************************************************************************************************

 MP2/cc-pVDZ energy=   -194.644506314108

             MP2            PAPT          HF-SCF
   -194.64450631   -194.63592804   -193.88160278
 **********************************************************************************************************************************
 Molpro calculation terminated
