
 Working directory              : /home/jovyan/scratch/molpro.oeLqb19hKf/
 Global scratch directory       : /home/jovyan/scratch/molpro.oeLqb19hKf/
 Wavefunction directory         : /home/jovyan/wfu/
 Main file repository           : /home/jovyan/scratch/molpro.oeLqb19hKf/

 id        : cardiff

 Nodes                nprocs
 jupyter-c-2efrancisan    1
 GA implementation: MPI file
 GA implementation (serial work in mppx): MPI file

 Using customized tuning parameters: mindgm=1; mindgv=20; mindgc=4; mindgr=1; noblas=0; minvec=7
 default implementation of scratch files=df  


 Variables initialized (1031), CPU time= 0.00 sec
 
 
 
 geometry={
 8
  2NH3 (Full point group Cs)
  H -0.155611 0.718127 0.000000
  H -0.421026 2.115582 0.813988
  H -0.255988 -2.122455 0.815316
  H 1.046178 -1.572039 0.000000
  N 0.033104 1.718343 0.000000
  N 0.033104 -1.594392 0.000000
  H -0.255988 -2.122455 -0.815316
  H -0.421026 2.115582 -0.813988
 }
 basis=cc-pVTZ
 angstrom
 
 
 hf; ccsd(t)
 
 
 
 {put,xml;noorbitals,nobasis}
 Commands initialized (841), CPU time= 0.01 sec, 704 directives.
 Default parameters read. Elapsed time= 0.08 sec

 Checking input...
 Passed
1


                                         ***  PROGRAM SYSTEM MOLPRO  ***
                                       Copyright, TTI GmbH Stuttgart, 2015
                                    Version 2023.1 linked Mon Jun  5 13:27:10 2023


 **********************************************************************************************************************************
 LABEL *                                                                                                                                                                 
  (16 PROC) 64 bit serial version                                                        DATE: 03-Aug-23          TIME: 14:11:14  
 **********************************************************************************************************************************

 SHA1:             9738a14712571edd23541b6d7c4f3a3d766f8287
 **********************************************************************************************************************************

 Memory per process:       805 MW
 Total memory per node:   1074 MW
 Total GA space:           268 MW

 GA preallocation disabled
 GA check enabled

 Geometry recognized as XYZ


 Variable memory set to 805.3 MW

 SETTING BASIS          =    CC-PVTZ


 Recomputing integrals since basis changed


 Using spherical harmonics

 Library entry H      S cc-pVTZ              selected for orbital group  1
 Library entry H      P cc-pVTZ              selected for orbital group  1
 Library entry H      D cc-pVTZ              selected for orbital group  1
 Library entry N      S cc-pVTZ              selected for orbital group  2
 Library entry N      P cc-pVTZ              selected for orbital group  2
 Library entry N      D cc-pVTZ              selected for orbital group  2
 Library entry N      F cc-pVTZ              selected for orbital group  2


 PROGRAM * SEWARD (Integral evaluation for generally contracted gaussian basis sets)     Author: Roland Lindh, 1990

 Geometry written to block  1 of record 700


 Point group  Cs  



 ATOMIC COORDINATES

 NR  ATOM    CHARGE       X              Y              Z

   1  H       1.00   -0.294062172    1.357063353    0.000000000
   2  H       1.00   -0.795623831    3.997870574    1.538214389
   3  H       1.00   -0.795623831    3.997870574   -1.538214389
   4  H       1.00   -0.483747211   -4.010858662    1.540723945
   5  H       1.00   -0.483747211   -4.010858662   -1.540723945
   6  H       1.00    1.976989898   -2.970723167    0.000000000
   7  N       7.00    0.062557494    3.247197658    0.000000000
   8  N       7.00    0.062557494   -3.012964215    0.000000000

 Bond lengths in Bohr (Angstrom)

 1-7  1.923482591  2-7  1.914703246  3-7  1.914703246  4-8  1.915221249  5-8  1.915221249
     ( 1.017863153)     ( 1.013217323)     ( 1.013217323)     ( 1.013491439)     ( 1.013491439)

 6-8  1.914898362
     ( 1.013320574)

 Bond angles

  1-7-2  107.58744481   1-7-3  107.58744481   2-7-3  106.90618281   4-8-5  107.11678308

  4-8-6  107.25757323   5-8-6  107.25757323

 NUCLEAR CHARGE:                   20
 NUMBER OF PRIMITIVE AOS:         196
 NUMBER OF SYMMETRY AOS:          180
 NUMBER OF CONTRACTIONS:          144   (   88A'  +   56A"  )
 NUMBER OF INNER CORE ORBITALS:     0   (    0A'  +    0A"  )
 NUMBER OF OUTER CORE ORBITALS:     2   (    2A'  +    0A"  )
 NUMBER OF VALENCE ORBITALS:       14   (   10A'  +    4A"  )


 NUCLEAR REPULSION ENERGY   39.48477590


 Eigenvalues of metric

         1 0.153E-02 0.164E-02 0.355E-02 0.370E-02 0.379E-02 0.404E-02 0.856E-02 0.864E-02
         2 0.342E-02 0.419E-02 0.852E-02 0.859E-02 0.353E-01 0.388E-01 0.424E-01 0.437E-01


 Contracted 2-electron integrals neglected if value below      1.0D-11
 AO integral compression algorithm  1   Integral accuracy      1.0D-11

     90.702 MB (compressed) written to integral file ( 36.6%)


 NUMBER OF SORTED TWO-ELECTRON INTEGRALS:   27693700.     BUFFER LENGTH:  32768
 NUMBER OF SEGMENTS:   2  SEGMENT LENGTH:   15992692      RECORD LENGTH: 524288

 Memory used in sort:      16.55 MW

 SORT1 READ    30975333. AND WROTE    20534284. INTEGRALS IN     60 RECORDS. CPU TIME:     0.42 SEC, REAL TIME:     0.62 SEC
 SORT2 READ    20534284. AND WROTE    27693700. INTEGRALS IN    346 RECORDS. CPU TIME:     0.65 SEC, REAL TIME:     0.81 SEC

 FILE SIZES:   FILE 1:   121.4 MBYTE,  FILE 4:   251.7 MBYTE,   TOTAL:    373.1 MBYTE

 OPERATOR DM      FOR CENTER  0  COORDINATES:    0.000000    0.000000    0.000000


 **********************************************************************************************************************************
 DATASETS  * FILE   NREC   LENGTH (MB)   RECORD NAMES
              1      19      107.30       500      610      700      900      950      970     1000      129      960     1100   
                                          VAR    BASINP    GEOM    SYMINP    ZMAT    AOBASIS   BASIS     P2S    ABASIS      S 
                                         1400     1410     1200     1210     1080     1600     1650     1300     1700   
                                           T        V       H0       H01     AOSYM     SMH    MOLCAS    ERIS     OPER   

 PROGRAMS   *        TOTAL       INT
 CPU TIMES  *         4.12      3.98
 REAL TIME  *         6.34 SEC
 DISK USED  *       356.27 MB
 **********************************************************************************************************************************


 Program * Restricted Hartree-Fock

 Orbital guess generated from atomic densities. Full valence occupancy:   12   4

 Initial occupancy:   8   2

 NELEC=   20   SYM=1   MS2= 0   THRE=1.0D-08   THRD=3.2D-06   THRG=3.2D-06  HFMA2=F  DIIS_START=2   DIIS_MAX=10   DIIS_INCORE=F

 Level shifts:    0.00 (CLOSED)    0.00 (OPEN)    0.30 (GAP_MIN)

 ITER           ETOT              DE          GRAD        DDIFF     DIIS  NEXP   TIME(IT)  TIME(TOT)  DIAG
   1     -112.39031626    -112.39031626     0.00D+00     0.82D-01     0     0       0.24      0.46    start
   2     -112.43007871      -0.03976244     0.82D-02     0.11D-01     1     0       0.24      0.70    diag
   3     -112.43865709      -0.00857838     0.39D-02     0.35D-02     2     0       0.24      0.94    diag
   4     -112.43909735      -0.00044026     0.62D-03     0.76D-03     3     0       0.23      1.17    diag
   5     -112.43912178      -0.00002443     0.13D-03     0.18D-03     4     0       0.24      1.41    diag
   6     -112.43912295      -0.00000117     0.25D-04     0.48D-04     5     0       0.23      1.64    diag
   7     -112.43912299      -0.00000005     0.51D-05     0.10D-04     6     0       0.24      1.88    diag
   8     -112.43912300      -0.00000001     0.20D-05     0.30D-05     7     0       0.24      2.12    fixocc
   9     -112.43912300      -0.00000000     0.57D-06     0.81D-06     0     0       0.24      2.36    diag

 Final occupancy:   8   2

 !RHF STATE 1.1 Energy               -112.439122999087
  RHF One-electron energy            -230.607970578068
  RHF Two-electron energy              78.684071677627
  RHF Kinetic energy                  112.295922416105
  RHF Nuclear energy                   39.484775901353
  RHF Virial quotient                  -1.001275207326

 !RHF STATE 1.1 Dipole moment          -0.36283903    -0.90056955     0.00000000
 Dipole moment /Debye                  -0.92224484    -2.28901947     0.00000000

 Orbital energies:

           1.1          2.1          3.1          4.1          5.1          6.1          7.1          8.1          9.1         10.1
    -15.546532   -15.506510    -1.148785    -1.109520    -0.636809    -0.599304    -0.437837    -0.399282     0.127817     0.171190

           1.2          2.2          3.2          4.2
     -0.635935    -0.599390     0.207868     0.232890


 HOMO      8.1    -0.399282 =     -10.8650eV
 LUMO      9.1     0.127817 =       3.4781eV
 LUMO-HOMO         0.527100 =      14.3431eV

 Orbitals saved in record  2100.2


 **********************************************************************************************************************************
 DATASETS  * FILE   NREC   LENGTH (MB)   RECORD NAMES
              1      19      107.30       500      610      700      900      950      970     1000      129      960     1100   
                                          VAR    BASINP    GEOM    SYMINP    ZMAT    AOBASIS   BASIS     P2S    ABASIS      S 
                                         1400     1410     1200     1210     1080     1600     1650     1300     1700   
                                           T        V       H0       H01     AOSYM     SMH    MOLCAS    ERIS     OPER   

              2       4        0.68       700     1000      520     2100   
                                         GEOM     BASIS   MCVARS     RHF  

 PROGRAMS   *        TOTAL    HF-SCF       INT
 CPU TIMES  *         6.48      2.36      3.98
 REAL TIME  *         8.87 SEC
 DISK USED  *       356.27 MB
 **********************************************************************************************************************************


 PROGRAM * CCSD (Closed-shell coupled cluster)     Authors: C. Hampel, H.-J. Werner, 1991, M. Deegan, P.J. Knowles, 1992


 Convergence thresholds:  THRVAR = 1.00D-08  THRDEN = 1.00D-06

 CCSD(T)     terms to be evaluated (factor= 1.000)


 Number of core orbitals:           2 (   2   0 )
 Number of closed-shell orbitals:   8 (   6   2 )
 Number of external orbitals:     134 (  80  54 )

 Molecular orbitals read from record     2100.2  Type=RHF/CANONICAL  

 Number of N-1 electron functions:               8
 Number of N-2 electron functions:              36
 Number of singly external CSFs:               588
 Number of doubly external CSFs:            290536
 Total number of CSFs:                      291125

 Length of J-op  integral file:               0.00 MB
 Length of K-op  integral file:               0.81 MB
 Length of 3-ext integral record:             0.00 MB

 Memory could be reduced to 13.51 Mwords without degradation in triples

 Integral transformation finished. Total CPU:   0.90 sec, npass=  1  Memory used:   4.69 MW

 Reference energy:                   -112.43912300

 MP2 singlet pair energy:              -0.31487739
 MP2 triplet pair energy:              -0.15789692
 MP2 correlation energy:               -0.47277431
 MP2 total energy:                   -112.91189731

 SCS-MP2 correlation energy:           -0.47609984   (PS=  1.200000  PT=  0.333333)
 SCS-MP2 total energy:               -112.91522284

 ITER.      SQ.NORM     CORR.ENERGY   TOTAL ENERGY   ENERGY CHANGE        DEN1      VAR(S)    VAR(P)  DIIS     TIME  TIME/IT
   1      1.13897777    -0.49562086  -112.93474386    -0.02284655    -0.01265176  0.85D-03  0.18D-02  1  1     8.56     1.01
   2      1.14697124    -0.49708039  -112.93620339    -0.00145952    -0.00970930  0.28D-04  0.18D-03  2  2     9.42     1.00
   3      1.14943444    -0.49723008  -112.93635308    -0.00014969    -0.00174573  0.28D-05  0.10D-04  3  3    10.28     0.98
   4      1.15007024    -0.49725890  -112.93638190    -0.00002882    -0.00033503  0.36D-06  0.52D-06  4  4    11.13     0.97
   5      1.15015871    -0.49725755  -112.93638055     0.00000136    -0.00003366  0.76D-07  0.41D-07  5  5    12.01     0.96
   6      1.15017461    -0.49725648  -112.93637948     0.00000107    -0.00000638  0.18D-07  0.42D-08  6  6    12.85     0.95
   7      1.15017781    -0.49725662  -112.93637962    -0.00000014    -0.00000026  0.45D-08  0.76D-09  6  2    13.72     0.95
   8      1.15018031    -0.49725662  -112.93637962    -0.00000000    -0.00000026  0.75D-09  0.16D-09  6  1    14.60     0.95

 Norm of t1 vector:      0.03616835      S-energy:    -0.00000016      T1 diagnostic:  0.00639372
                                                                       D1 diagnostic:  0.01282893
                                                                       D2 diagnostic:  0.13349138 (internal)


 Total CPU time for triples:     11.54 sec


 RESULTS
 =======

  Reference energy                   -112.439122999087
  CCSD singlet pair energy             -0.352933884211
  CCSD triplet pair energy             -0.144322579926
  CCSD correlation energy              -0.497256619680

  Triples (T) contribution             -0.015669827311
  Total correlation energy             -0.512926446991

  CCSD total energy                  -112.936379618768
  CCSD[T] energy                     -112.952410093302
  CCSD-T energy                      -112.951857895985
 !CCSD(T) total energy               -112.952049446078

 Timing summary (sec):

 STEP                 CPU(USER)    SYS     CPU(TOT)    WALL
 Transformation          0.93      0.15      1.08      1.42
 CCSD iterations        13.70      0.49     14.19      7.65
 Triples                11.54      0.38     11.92     12.02

 Program statistics:

 Available memory in ccsd:               805306104
 Min. memory needed in ccsd:                887643
 Max. memory used in ccsd:                 1130503
 Max. memory used in cckext:               1292298 ( 8 integral passes)



 **********************************************************************************************************************************
 DATASETS  * FILE   NREC   LENGTH (MB)   RECORD NAMES
              1      20      148.98       500      610      700      900      950      970     1000      129      960     1100   
                                          VAR    BASINP    GEOM    SYMINP    ZMAT    AOBASIS   BASIS     P2S    ABASIS      S 
                                         1400     1410     1200     1210     1080     1600     1650     1300     1700     1380   
                                           T        V       H0       H01     AOSYM     SMH    MOLCAS    ERIS     OPER     JKOP   

              2       4        0.68       700     1000      520     2100   
                                         GEOM     BASIS   MCVARS     RHF  

 PROGRAMS   *        TOTAL   CCSD(T)    HF-SCF       INT
 CPU TIMES  *        25.89     19.41      2.36      3.98
 REAL TIME  *        30.00 SEC
 DISK USED  *       356.27 MB
 **********************************************************************************************************************************

 Dump information in style XML to xml output                                                                      

 Orbitals will not be exported.

 **********************************************************************************************************************************

 CCSD(T)/cc-pVTZ energy=   -112.952049446078

         CCSD(T)          HF-SCF
   -112.95204945   -112.43912300
 **********************************************************************************************************************************
 Molpro calculation terminated
