
 Working directory              : /home/jovyan/scratch/molpro.bBjIYuArhz/
 Global scratch directory       : /home/jovyan/scratch/molpro.bBjIYuArhz/
 Wavefunction directory         : /home/jovyan/wfu/
 Main file repository           : /home/jovyan/scratch/molpro.bBjIYuArhz/

 id        : cardiff

 Nodes                nprocs
 jupyter-c-2efrancisan    1
 GA implementation: MPI file
 GA implementation (serial work in mppx): MPI file

 Using customized tuning parameters: mindgm=1; mindgv=20; mindgc=4; mindgr=1; noblas=0; minvec=7
 default implementation of scratch files=df  


 Variables initialized (1031), CPU time= 0.01 sec
 
 
 
 geometry={
 11
  C    -0.2692331    1.5323856    1.6480625
  C    -0.3350059   -1.3093287   -1.0219199
  C     0.7843782   -1.2453943   -1.7259045
  H    -0.2270821    2.5841057    1.3754968
  H     0.3752031    1.3551361    2.5057916
  H     0.0655748    0.9253778    0.8098806
  H    -1.2922149    1.2660609    1.9032646
  H    -1.2276984   -0.7725013   -1.3185237
  H    -0.4079332   -1.9000042   -0.1170863
  H     0.8570528   -0.6540376   -2.6302551
  H     1.6769587   -1.7817999   -1.4288065
 }
 basis=cc-pVDZ
 angstrom
 
 
 hf; papt;mp4
 
 
 
 {put,xml;noorbitals,nobasis}
 Commands initialized (841), CPU time= 0.01 sec, 704 directives.
 Default parameters read. Elapsed time= 0.09 sec

 Checking input...
 Passed
1


                                         ***  PROGRAM SYSTEM MOLPRO  ***
                                       Copyright, TTI GmbH Stuttgart, 2015
                                    Version 2023.1 linked Mon Jun  5 13:27:10 2023


 **********************************************************************************************************************************
 LABEL *                                                                                                                                                                 
  (16 PROC) 64 bit serial version                                                        DATE: 02-Aug-23          TIME: 15:44:14  
 **********************************************************************************************************************************

 SHA1:             9738a14712571edd23541b6d7c4f3a3d766f8287
 **********************************************************************************************************************************

 Memory per process:       805 MW
 Total memory per node:   1074 MW
 Total GA space:           268 MW

 GA preallocation disabled
 GA check enabled

 Geometry recognized as XYZ


 Variable memory set to 805.3 MW

 SETTING BASIS          =    CC-PVDZ


 Recomputing integrals since basis changed


 Using spherical harmonics

 Library entry C      S cc-pVDZ              selected for orbital group  1
 Library entry C      P cc-pVDZ              selected for orbital group  1
 Library entry C      D cc-pVDZ              selected for orbital group  1
 Library entry H      S cc-pVDZ              selected for orbital group  2
 Library entry H      P cc-pVDZ              selected for orbital group  2


 PROGRAM * SEWARD (Integral evaluation for generally contracted gaussian basis sets)     Author: Roland Lindh, 1990

 Geometry written to block  1 of record 700


 Point group  C1  



 ATOMIC COORDINATES

 NR  ATOM    CHARGE       X              Y              Z

   1  C       6.00   -0.508776823    2.895789101    3.114386761
   2  C       6.00   -0.633069401   -2.474272650   -1.931148732
   3  C       6.00    1.482259976   -2.353454144   -3.261486822
   4  H       1.00   -0.429122977    4.883252050    2.599312237
   5  H       1.00    0.709031100    2.560836091    4.735259849
   6  H       1.00    0.123918413    1.748710604    1.530452528
   7  H       1.00   -2.441932255    2.392508358    3.596648837
   8  H       1.00   -2.320013740   -1.459815888   -2.491648682
   9  H       1.00   -0.770882025   -3.590487574   -0.221261040
  10  H       1.00    1.619595066   -1.235951939   -4.970461777
  11  H       1.00    3.168992665   -3.367113820   -2.700052970

 Bond lengths in Bohr (Angstrom)

 1-4  2.054666755  1-5  2.054867203  1-6  2.055465883  1-7  2.054983733  2-3  2.501802334
     ( 1.087282823)     ( 1.087388896)     ( 1.087705703)     ( 1.087450560)     ( 1.323896781)

  2- 8  2.046720283   2- 9  2.046617696   3-10  2.046525715   3-11  2.046406869
       ( 1.083077731)       ( 1.083023444)       ( 1.082974770)       ( 1.082911879)

 Bond angles

  2- 3-10  121.81347378   2- 3-11  121.81015358   3- 2- 8  121.82569891   3- 2- 9  121.83912347

  4-1-5  109.41679654   4-1-6  109.55426141   4-1-7  109.40215530   5-1-6  109.53935655

  5- 1- 7  109.41910421   6- 1- 7  109.49545271   8- 2- 9  116.33511298  10- 3-11  116.37637094

 NUCLEAR CHARGE:                   26
 NUMBER OF PRIMITIVE AOS:         137
 NUMBER OF SYMMETRY AOS:          134
 NUMBER OF CONTRACTIONS:           82   (   82A   )
 NUMBER OF INNER CORE ORBITALS:     0   (    0A   )
 NUMBER OF OUTER CORE ORBITALS:     3   (    3A   )
 NUMBER OF VALENCE ORBITALS:       20   (   20A   )


 NUCLEAR REPULSION ENERGY   67.10502103


 Eigenvalues of metric

         1 0.367E-02 0.113E-01 0.158E-01 0.160E-01 0.260E-01 0.275E-01 0.324E-01 0.367E-01


 Contracted 2-electron integrals neglected if value below      1.0D-11
 AO integral compression algorithm  1   Integral accuracy      1.0D-11

     22.807 MB (compressed) written to integral file ( 48.1%)


 NUMBER OF SORTED TWO-ELECTRON INTEGRALS:    5791906.     BUFFER LENGTH:  32768
 NUMBER OF SEGMENTS:   1  SEGMENT LENGTH:    5791906      RECORD LENGTH: 524288

 Memory used in sort:       6.35 MW

 SORT1 READ     5929707. AND WROTE     5069686. INTEGRALS IN     15 RECORDS. CPU TIME:     0.07 SEC, REAL TIME:     0.49 SEC
 SORT2 READ     5069686. AND WROTE     5791906. INTEGRALS IN     87 RECORDS. CPU TIME:     0.16 SEC, REAL TIME:     0.19 SEC

 FILE SIZES:   FILE 1:    53.2 MBYTE,  FILE 4:    63.0 MBYTE,   TOTAL:    116.2 MBYTE

 OPERATOR DM      FOR CENTER  0  COORDINATES:    0.000000    0.000000    0.000000


 **********************************************************************************************************************************
 DATASETS  * FILE   NREC   LENGTH (MB)   RECORD NAMES
              1      19       47.60       500      610      700      900      950      970     1000      129      960     1100   
                                          VAR    BASINP    GEOM    SYMINP    ZMAT    AOBASIS   BASIS     P2S    ABASIS      S 
                                         1400     1410     1200     1210     1080     1600     1650     1300     1700   
                                           T        V       H0       H01     AOSYM     SMH    MOLCAS    ERIS     OPER   

 PROGRAMS   *        TOTAL       INT
 CPU TIMES  *         1.45      1.31
 REAL TIME  *         3.37 SEC
 DISK USED  *       111.31 MB
 **********************************************************************************************************************************


 Program * Restricted Hartree-Fock

 Orbital guess generated from atomic densities. Full valence occupancy:   23

 Initial occupancy:  13

 NELEC=   26   SYM=1   MS2= 0   THRE=1.0D-08   THRD=3.2D-06   THRG=3.2D-06  HFMA2=F  DIIS_START=2   DIIS_MAX=10   DIIS_INCORE=F

 Level shifts:    0.00 (CLOSED)    0.00 (OPEN)    0.30 (GAP_MIN)

 ITER           ETOT              DE          GRAD        DDIFF     DIIS  NEXP   TIME(IT)  TIME(TOT)  DIAG
   1     -118.19794636    -118.19794636     0.00D+00     0.11D+00     0     0       0.07      0.13    start
   2     -118.23417624      -0.03622988     0.54D-02     0.11D-01     1     0       0.06      0.19    diag
   3     -118.23795171      -0.00377547     0.18D-02     0.37D-02     2     0       0.06      0.25    diag
   4     -118.23843512      -0.00048341     0.52D-03     0.13D-02     3     0       0.07      0.32    diag
   5     -118.23844027      -0.00000515     0.55D-04     0.18D-03     4     0       0.06      0.38    diag
   6     -118.23844036      -0.00000009     0.65D-05     0.23D-04     5     0       0.06      0.44    diag
   7     -118.23844036      -0.00000000     0.15D-05     0.42D-05     6     0       0.07      0.51    diag
   8     -118.23844036      -0.00000000     0.40D-06     0.81D-06     7     0       0.06      0.57    fixocc
   9     -118.23844036      -0.00000000     0.10D-06     0.23D-06     0     0       0.07      0.64    diag

 Final occupancy:  13

 !RHF STATE 1.1 Energy               -118.238440362361
  RHF One-electron energy            -290.348496795273
  RHF Two-electron energy             105.005035404147
  RHF Kinetic energy                  118.046649962194
  RHF Nuclear energy                   67.105021028764
  RHF Virial quotient                  -1.001624700068

 !RHF STATE 1.1 Dipole moment           0.00719038    -0.04000456    -0.04318869
 Dipole moment /Debye                   0.01827611    -0.10168144    -0.10977469

 Orbital energies:

           1.1          2.1          3.1          4.1          5.1          6.1          7.1          8.1          9.1         10.1
    -11.236040   -11.234302   -11.209638    -1.035955    -0.938425    -0.791057    -0.640586    -0.587689    -0.538914    -0.538773

          11.1         12.1         13.1         14.1         15.1
     -0.538373    -0.502363    -0.377097     0.164754     0.189163


 HOMO     13.1    -0.377097 =     -10.2613eV
 LUMO     14.1     0.164754 =       4.4832eV
 LUMO-HOMO         0.541851 =      14.7445eV

 Orbitals saved in record  2100.2


 **********************************************************************************************************************************
 DATASETS  * FILE   NREC   LENGTH (MB)   RECORD NAMES
              1      19       47.60       500      610      700      900      950      970     1000      129      960     1100   
                                          VAR    BASINP    GEOM    SYMINP    ZMAT    AOBASIS   BASIS     P2S    ABASIS      S 
                                         1400     1410     1200     1210     1080     1600     1650     1300     1700   
                                           T        V       H0       H01     AOSYM     SMH    MOLCAS    ERIS     OPER   

              2       4        0.65       700     1000      520     2100   
                                         GEOM     BASIS   MCVARS     RHF  

 PROGRAMS   *        TOTAL    HF-SCF       INT
 CPU TIMES  *         2.09      0.64      1.31
 REAL TIME  *         4.17 SEC
 DISK USED  *       111.31 MB
 **********************************************************************************************************************************


 PROGRAM * PAPT (Closed-shell)     Authors: C. Hampel, H.-J. Werner, 1991, P.J. Knowles, 2021


 Convergence thresholds:  THRVAR = 1.00D-08  THRDEN = 1.00D-06

 Number of core orbitals:           3 (   3 )
 Number of closed-shell orbitals:  10 (  10 )
 Number of external orbitals:      69 (  69 )

 Molecular orbitals read from record     2100.2  Type=RHF/CANONICAL  

 Number of N-1 electron functions:              10
 Number of N-2 electron functions:              55
 Number of singly external CSFs:               690
 Number of doubly external CSFs:            238395
 Total number of CSFs:                      239086

 Length of J-op  integral file:               0.00 MB
 Length of K-op  integral file:               0.52 MB

 Integral transformation finished. Total CPU:   0.13 sec, npass=  1  Memory used:   0.79 MW

 Reference energy:                   -118.23844036

                        CORR.ENERGY   TOTAL ENERGY   ENERGY CHANGE
 MP2:                   -0.43664349  -118.67508385    -0.43664349

 SCS-MP2 correlation energy:           -0.44502033   (PS=  1.200000  PT=  0.333333)
 SCS-MP2 total energy:               -118.68346070
 Iteration:   1     0.2707D+00
 Iteration:   2     0.6575D+00
 Iteration:   3     0.1378D+00
 Iteration:   4     0.2238D+00
 Iteration:   5     0.1673D+00
 Iteration:   6     0.1627D+00
 Iteration:   7     0.9401D+00
 Iteration:   8     0.2460D+00
 Iteration:   9     0.9468D+00
 Iteration:  10     0.1162D+00
 Iteration:  11     0.1754D+00
 Iteration:  12     0.5107D-01
 Iteration:  13     0.3505D-01
 Iteration:  14     0.8068D-01
 Iteration:  15     0.1036D-01
 Iteration:  16     0.4883D-02
 Iteration:  17     0.3171D-01
 Iteration:  18     0.1660D-02
 Iteration:  19     0.6560D-03
 Iteration:  20     0.9345D-02
 Iteration:  21     0.2210D-03
 Iteration:  22     0.3781D-03
 Iteration:  23     0.7975D-04
 PAPT operator written to  7000.1
 PAPT orbitals and eigenvalues written to  7000.2

 MP3(D):                -0.48210680  -118.72054716    -0.04546331



 RESULTS
 =======

  Reference energy                   -118.238440362361
  MP3 singlet pair energy              -0.347724061744
  MP3 triplet pair energy              -0.134382740697
  MP3 correlation energy               -0.482106802441

 !MP3 total energy                   -118.720547164802

 Timing summary (sec):

 STEP                 CPU(USER)    SYS     CPU(TOT)    WALL
 Transformation          0.14      0.02      0.16      0.79
 CCSD iterations         4.06      0.06      4.12      2.06

 Program statistics:

 Available memory in ccsd:               805305955
 Min. memory needed in ccsd:                710208
 Max. memory used in ccsd:                  905513
 Max. memory used in cckext:                825046 ( 1 integral passes)



 **********************************************************************************************************************************
 DATASETS  * FILE   NREC   LENGTH (MB)   RECORD NAMES
              1      21       51.98       500      610      700      900      950      970     1000      129      960     1100   
                                          VAR    BASINP    GEOM    SYMINP    ZMAT    AOBASIS   BASIS     P2S    ABASIS      S 
                                         1400     1410     1200     1210     1080     1600     1650     1300     1700     1380   
                                           T        V       H0       H01     AOSYM     SMH    MOLCAS    ERIS     OPER     JKOP   
                                         7000   
                                        PAPT AO    

              2       5        0.91       700     1000      520     2100     7000   
                                         GEOM     BASIS   MCVARS     RHF     PAPT   

 PROGRAMS   *        TOTAL      PAPT    HF-SCF       INT
 CPU TIMES  *         3.94      1.84      0.64      1.31
 REAL TIME  *         7.06 SEC
 DISK USED  *       111.31 MB
 **********************************************************************************************************************************


 PROGRAM * MP4 (Closed-shell)     Authors: C. Hampel, H.-J. Werner, 1991, M. Deegan, P.J. Knowles, 1992


 Convergence thresholds:  THRVAR = 1.00D-08  THRDEN = 1.00D-06

 MP4(T)     terms to be evaluated (factor= 0.000)


 Number of core orbitals:           3 (   3 )
 Number of closed-shell orbitals:  10 (  10 )
 Number of external orbitals:      69 (  69 )

 Molecular orbitals read from record     7000.2  Type=PAPT/CANONICAL (state 1.1)

 Number of N-1 electron functions:              10
 Number of N-2 electron functions:              55
 Number of singly external CSFs:               690
 Number of doubly external CSFs:            238395
 Total number of CSFs:                      239086

 Length of J-op  integral file:               0.00 MB
 Length of K-op  integral file:               0.52 MB

 Memory could be reduced to 4.83 Mwords without degradation in triples

 Integral transformation finished. Total CPU:   0.29 sec, npass=  1  Memory used:   3.86 MW
 Orbital energies read from record       7000.2  Type=PAPT/CANONICAL (state 1.1)

 Reference energy:                   -118.23844036

                        CORR.ENERGY   TOTAL ENERGY   ENERGY CHANGE
 MP2:                   -0.49137667  -118.72981703    -0.49137667

 SCS-MP2 correlation energy:           -0.50407786   (PS=  1.200000  PT=  0.333333)
 SCS-MP2 total energy:               -118.74251823

 MP3(D):                -0.49171300  -118.73015336    -0.00033633
 MP4(DQ):               -0.48674240  -118.72518276     0.00497060
 MP4(SDQ):              -0.48965542  -118.72809578    -0.00291302

 Norm of t1 vector:      0.04442793      S-energy:    -0.00291302      T1 diagnostic:  0.00702467

 Largest off-diagonal element in interal  block of Fock matrix:  0.13D+00
 Largest off-diagonal element in external block of Fock matrix:  0.18D+00


 Total CPU time for triples:      3.98 sec


 RESULTS
 =======

  Reference energy                   -118.238440362361
  MP4(SDQ) singlet pair energy         -0.353639766098
  MP4(SDQ) triplet pair energy         -0.133102634531
  MP4(SDQ) correlation energy          -0.489655416637

  Triples contribution                 -0.016083620881
  Total correlation energy             -0.505739037519

  MP4(SDQ) total energy              -118.728095778999
 !MP4(SDTQ) total energy             -118.744179399880

 Timing summary (sec):

 STEP                 CPU(USER)    SYS     CPU(TOT)    WALL
 Transformation          0.38      0.03      0.41      0.75
 CCSD iterations         5.03      0.02      5.05      0.83
 Triples                 3.98      0.23      4.21      4.45

 Program statistics:

 Available memory in ccsd:               805305955
 Min. memory needed in ccsd:                710208
 Max. memory used in ccsd:                  905513
 Max. memory used in cckext:                825046 ( 1 integral passes)



 **********************************************************************************************************************************
 DATASETS  * FILE   NREC   LENGTH (MB)   RECORD NAMES
              1      22       64.69       500      610      700      900      950      970     1000      129      960     1100   
                                          VAR    BASINP    GEOM    SYMINP    ZMAT    AOBASIS   BASIS     P2S    ABASIS      S 
                                         1400     1410     1200     1210     1080     1600     1650     1300     1700     1380   
                                           T        V       H0       H01     AOSYM     SMH    MOLCAS    ERIS     OPER     JKOP   
                                         7000     1380(1)
                                        PAPT AO   JKOP   

              2       5        0.91       700     1000      520     2100     7000   
                                         GEOM     BASIS   MCVARS     RHF     PAPT   

 PROGRAMS   *        TOTAL       MP4      PAPT    HF-SCF       INT
 CPU TIMES  *         9.12      5.18      1.84      0.64      1.31
 REAL TIME  *        13.15 SEC
 DISK USED  *       111.31 MB
 **********************************************************************************************************************************

 Dump information in style XML to xml output                                                                      

 Orbitals will not be exported.

 **********************************************************************************************************************************

 MP4/cc-pVDZ energy=   -118.744179399880

             MP4            PAPT          HF-SCF
   -118.74417940   -118.72054716   -118.23844036
 **********************************************************************************************************************************
 Molpro calculation terminated
