
 Working directory              : /home/jovyan/scratch/molpro.4cdCzg4uRB/
 Global scratch directory       : /home/jovyan/scratch/molpro.4cdCzg4uRB/
 Wavefunction directory         : /home/jovyan/wfu/
 Main file repository           : /home/jovyan/scratch/molpro.4cdCzg4uRB/

 id        : cardiff

 Nodes                nprocs
 jupyter-c-2efrancisan    1
 GA implementation: MPI file
 GA implementation (serial work in mppx): MPI file

 Using customized tuning parameters: mindgm=1; mindgv=20; mindgc=4; mindgr=1; noblas=0; minvec=7
 default implementation of scratch files=df  


 Variables initialized (1031), CPU time= 0.01 sec
 
 
 
 geometry={
           11
     C          0.84569904      0.12713761      0.13946157
     O          2.05989851      0.13279236      0.15296094
     C         -0.03711667     -1.08753667     -0.04275033
     H         -0.64680710     -1.19719475      0.86842957
     H          0.62855514     -1.95668832     -0.10873027
     C         -0.95678165     -0.99781798     -1.27012836
     H         -1.56228772     -1.91016058     -1.35559181
     H         -1.63656465     -0.13999836     -1.19437542
     H         -0.37318621     -0.89300682     -2.19519053
     O          0.10954038      1.27039295      0.29899113
     H          0.76324433      1.99277608      0.40588619
 }
 basis=cc-pVTZ
 angstrom
 
 
 hf; papt;mp4
 
 
 
 {put,xml;noorbitals,nobasis}
 Commands initialized (841), CPU time= 0.01 sec, 704 directives.
 Default parameters read. Elapsed time= 0.10 sec

 Checking input...
 Passed
1


                                         ***  PROGRAM SYSTEM MOLPRO  ***
                                       Copyright, TTI GmbH Stuttgart, 2015
                                    Version 2023.1 linked Mon Jun  5 13:27:10 2023


 **********************************************************************************************************************************
 LABEL *                                                                                                                                                                 
  (16 PROC) 64 bit serial version                                                        DATE: 03-Aug-23          TIME: 17:01:09  
 **********************************************************************************************************************************

 SHA1:             9738a14712571edd23541b6d7c4f3a3d766f8287
 **********************************************************************************************************************************

 Memory per process:       805 MW
 Total memory per node:   1074 MW
 Total GA space:           268 MW

 GA preallocation disabled
 GA check enabled

 Geometry recognized as XYZ


 Variable memory set to 805.3 MW

 SETTING BASIS          =    CC-PVTZ


 Recomputing integrals since basis changed


 Using spherical harmonics

 Library entry C      S cc-pVTZ              selected for orbital group  1
 Library entry C      P cc-pVTZ              selected for orbital group  1
 Library entry C      D cc-pVTZ              selected for orbital group  1
 Library entry C      F cc-pVTZ              selected for orbital group  1
 Library entry O      S cc-pVTZ              selected for orbital group  2
 Library entry O      P cc-pVTZ              selected for orbital group  2
 Library entry O      D cc-pVTZ              selected for orbital group  2
 Library entry O      F cc-pVTZ              selected for orbital group  2
 Library entry H      S cc-pVTZ              selected for orbital group  4
 Library entry H      P cc-pVTZ              selected for orbital group  4
 Library entry H      D cc-pVTZ              selected for orbital group  4


 PROGRAM * SEWARD (Integral evaluation for generally contracted gaussian basis sets)     Author: Roland Lindh, 1990

 Geometry written to block  1 of record 700


 Point group  C1  



 ATOMIC COORDINATES

 NR  ATOM    CHARGE       X              Y              Z

   1  C       6.00    1.598139569    0.240255263    0.263544172
   2  O       8.00    3.892644028    0.250941192    0.289054284
   3  C       6.00   -0.070140341   -2.055146457   -0.080786415
   4  H       1.00   -1.222288274   -2.262370195    1.641094046
   5  H       1.00    1.187797069   -3.697605036   -0.205470432
   6  C       6.00   -1.808055280   -1.885602704   -2.400194744
   7  H       1.00   -2.952295919   -3.609680350   -2.561697258
   8  H       1.00   -3.092658974   -0.264558558   -2.257042434
   9  H       1.00   -0.705219730   -1.687538317   -4.148308893
  10  O       8.00    0.207001318    2.400694746    0.565011349
  11  H       1.00    1.442322750    3.765801019    0.767013737

 Bond lengths in Bohr (Angstrom)

  1- 2  2.294671146   1- 3  2.858424473   1-10  2.587208313   3- 4  2.082128445   3- 5  2.072588434
       ( 1.214287677)       ( 1.512613090)       ( 1.369091679)       ( 1.101814923)       ( 1.096766567)

  3- 6  2.903230685   6- 7  2.075527266   6- 8  2.073278408   6- 9  2.076386002  10-11  1.852117475
       ( 1.536323516)       ( 1.098321730)       ( 1.097131686)       ( 1.098776153)       ( 0.980098360)

 Bond angles

  1- 3- 4  107.65337611   1- 3- 5  106.82142993   1- 3- 6  113.49785881   1-10-11  105.63737046

  2- 1- 3  126.06286465   2- 1-10  122.17286438   3- 1-10  111.76397083   3- 6- 7  110.10075457

  3-6-8  111.18620313   3-6-9  111.11420266   4-3-5  107.86232177   4-3-6  109.58763854

  5-3-6  111.19484705   7-6-8  108.25617093   7-6-9  107.85082852   8-6-9  108.21826037

 NUCLEAR CHARGE:                   40
 NUMBER OF PRIMITIVE AOS:         337
 NUMBER OF SYMMETRY AOS:          306
 NUMBER OF CONTRACTIONS:          234   (  234A   )
 NUMBER OF INNER CORE ORBITALS:     0   (    0A   )
 NUMBER OF OUTER CORE ORBITALS:     5   (    5A   )
 NUMBER OF VALENCE ORBITALS:       26   (   26A   )


 NUCLEAR REPULSION ENERGY  177.43621979


 Eigenvalues of metric

         1 0.662E-03 0.113E-02 0.123E-02 0.134E-02 0.155E-02 0.162E-02 0.168E-02 0.174E-02


 Contracted 2-electron integrals neglected if value below      1.0D-11
 AO integral compression algorithm  1   Integral accuracy      1.0D-11

     1353.449 MB (compressed) written to integral file ( 41.9%)


 NUMBER OF SORTED TWO-ELECTRON INTEGRALS:  378001260.     BUFFER LENGTH:  32768
 NUMBER OF SEGMENTS:  24  SEGMENT LENGTH:   15999762      RECORD LENGTH: 524288

 Memory used in sort:      16.56 MW

 SORT1 READ   404268045. AND WROTE   332242026. INTEGRALS IN    962 RECORDS. CPU TIME:     5.05 SEC, REAL TIME:     7.67 SEC
 SORT2 READ   332242026. AND WROTE   378001260. INTEGRALS IN   5163 RECORDS. CPU TIME:     5.66 SEC, REAL TIME:     7.53 SEC

 FILE SIZES:   FILE 1:  1385.7 MBYTE,  FILE 4:  4035.0 MBYTE,   TOTAL:   5420.6 MBYTE

 OPERATOR DM      FOR CENTER  0  COORDINATES:    0.000000    0.000000    0.000000


 **********************************************************************************************************************************
 DATASETS  * FILE   NREC   LENGTH (MB)   RECORD NAMES
              1      19     1211.21       500      610      700      900      950      970     1000      129      960     1100   
                                          VAR    BASINP    GEOM    SYMINP    ZMAT    AOBASIS   BASIS     P2S    ABASIS      S 
                                         1400     1410     1200     1210     1080     1600     1650     1300     1700   
                                           T        V       H0       H01     AOSYM     SMH    MOLCAS    ERIS     OPER   

 PROGRAMS   *        TOTAL       INT
 CPU TIMES  *        32.63     32.50
 REAL TIME  *        47.66 SEC
 DISK USED  *         5.05 GB
 **********************************************************************************************************************************


 Program * Restricted Hartree-Fock

 Orbital guess generated from atomic densities. Full valence occupancy:   31

 Initial occupancy:  20

 NELEC=   40   SYM=1   MS2= 0   THRE=1.0D-08   THRD=3.2D-06   THRG=3.2D-06  HFMA2=F  DIIS_START=2   DIIS_MAX=10   DIIS_INCORE=F

 Level shifts:    0.00 (CLOSED)    0.00 (OPEN)    0.30 (GAP_MIN)

 ITER           ETOT              DE          GRAD        DDIFF     DIIS  NEXP   TIME(IT)  TIME(TOT)  DIAG
   1     -266.83296073    -266.83296073     0.00D+00     0.51D-01     0     0       4.15      8.18    start
   2     -266.90641295      -0.07345222     0.53D-02     0.73D-02     1     0       4.12     12.30    diag
   3     -266.94374651      -0.03733356     0.36D-02     0.28D-02     2     0       4.18     16.48    diag
   4     -266.94574997      -0.00200346     0.59D-03     0.66D-03     3     0       4.22     20.70    diag
   5     -266.94606898      -0.00031901     0.25D-03     0.28D-03     4     0       4.17     24.87    diag
   6     -266.94610750      -0.00003852     0.67D-04     0.98D-04     5     0       4.08     28.95    diag
   7     -266.94611475      -0.00000725     0.27D-04     0.47D-04     6     0       4.16     33.11    diag
   8     -266.94611612      -0.00000137     0.11D-04     0.20D-04     7     0       4.12     37.23    fixocc
   9     -266.94611633      -0.00000021     0.40D-05     0.95D-05     8     0       4.11     41.34    diag
  10     -266.94611634      -0.00000001     0.86D-06     0.22D-05     9     0       4.14     45.48    diag/orth
  11     -266.94611634      -0.00000000     0.21D-06     0.28D-06     0     0       4.10     49.58    diag

 Final occupancy:  20

 !RHF STATE 1.1 Energy               -266.946116336455
  RHF One-electron energy            -716.075293410389
  RHF Two-electron energy             271.692957280162
  RHF Kinetic energy                  266.393405187701
  RHF Nuclear energy                  177.436219793772
  RHF Virial quotient                  -1.002074792912

 !RHF STATE 1.1 Dipole moment          -0.80540890    -0.03899268    -0.06601187
 Dipole moment /Debye                  -2.04714522    -0.09910950    -0.16778544

 Orbital energies:

           1.1          2.1          3.1          4.1          5.1          6.1          7.1          8.1          9.1         10.1
    -20.610275   -20.548313   -11.386687   -11.252488   -11.236564    -1.454771    -1.354046    -1.065342    -0.907804    -0.803385

          11.1         12.1         13.1         14.1         15.1         16.1         17.1         18.1         19.1         20.1
     -0.701875    -0.677338    -0.636008    -0.609383    -0.591366    -0.547305    -0.526497    -0.509569    -0.478907    -0.446750

          21.1         22.1
      0.129511     0.156973


 HOMO     20.1    -0.446750 =     -12.1567eV
 LUMO     21.1     0.129511 =       3.5242eV
 LUMO-HOMO         0.576262 =      15.6809eV

 Orbitals saved in record  2100.2


 **********************************************************************************************************************************
 DATASETS  * FILE   NREC   LENGTH (MB)   RECORD NAMES
              1      19     1211.21       500      610      700      900      950      970     1000      129      960     1100   
                                          VAR    BASINP    GEOM    SYMINP    ZMAT    AOBASIS   BASIS     P2S    ABASIS      S 
                                         1400     1410     1200     1210     1080     1600     1650     1300     1700   
                                           T        V       H0       H01     AOSYM     SMH    MOLCAS    ERIS     OPER   

              2       4        1.41       700     1000      520     2100   
                                         GEOM     BASIS   MCVARS     RHF  

 PROGRAMS   *        TOTAL    HF-SCF       INT
 CPU TIMES  *        82.22     49.59     32.50
 REAL TIME  *       118.91 SEC
 DISK USED  *         5.05 GB
 **********************************************************************************************************************************


 PROGRAM * PAPT (Closed-shell)     Authors: C. Hampel, H.-J. Werner, 1991, P.J. Knowles, 2021


 Convergence thresholds:  THRVAR = 1.00D-08  THRDEN = 1.00D-06

 Number of core orbitals:           5 (   5 )
 Number of closed-shell orbitals:  15 (  15 )
 Number of external orbitals:     214 ( 214 )

 Molecular orbitals read from record     2100.2  Type=RHF/CANONICAL  

 Number of N-1 electron functions:              15
 Number of N-2 electron functions:             120
 Number of singly external CSFs:              3210
 Number of doubly external CSFs:           5153655
 Total number of CSFs:                     5156866

 Length of J-op  integral file:               0.00 MB
 Length of K-op  integral file:               3.82 MB

 Integral transformation finished. Total CPU:  10.77 sec, npass=  1  Memory used:  11.99 MW

 Reference energy:                   -266.94611634

                        CORR.ENERGY   TOTAL ENERGY   ENERGY CHANGE
 MP2:                   -0.97791581  -267.92403214    -0.97791581

 SCS-MP2 correlation energy:           -0.96557871   (PS=  1.200000  PT=  0.333333)
 SCS-MP2 total energy:               -267.91169505
 Iteration:   1     0.2270D+00
 Iteration:   2     0.3087D+00
 Iteration:   3     0.8366D-01
 Iteration:   4     0.7049D-01
 Iteration:   5     0.5260D+00
 Iteration:   6     0.4110D-01
 Iteration:   7     0.4896D-01
 Iteration:   8     0.3729D-01
 Iteration:   9     0.1282D-01
 Iteration:  10     0.2904D+00
 Iteration:  11     0.5827D-02
 Iteration:  12     0.6209D-02
 Iteration:  13     0.4215D-02
 Iteration:  14     0.1135D-02
 Iteration:  15     0.5410D-02
 Iteration:  16     0.4324D-03
 Iteration:  17     0.4946D-03
 Iteration:  18     0.3087D-03
 Iteration:  19     0.1882D-03
 Iteration:  20     0.2075D-03
 Iteration:  21     0.1006D-03
 Iteration:  22     0.2483D-03
 Iteration:  23     0.3840D-04
 PAPT operator written to  7000.1
 PAPT orbitals and eigenvalues written to  7000.2

 MP3(D):                -0.99537120  -267.94148753    -0.01745539



 RESULTS
 =======

  Reference energy                   -266.946116336456
  MP3 singlet pair energy              -0.665254689107
  MP3 triplet pair energy              -0.330116507110
  MP3 correlation energy               -0.995371196216

 !MP3 total energy                   -267.941487532672

 Timing summary (sec):

 STEP                 CPU(USER)    SYS     CPU(TOT)    WALL
 Transformation         11.26      0.52     11.78     12.00
 CCSD iterations       161.44      1.42    162.86     81.76

 Program statistics:

 Available memory in ccsd:               805305448
 Min. memory needed in ccsd:              12856822
 Max. memory used in ccsd:                17534212
 Max. memory used in cckext:              13690114 ( 1 integral passes)



 **********************************************************************************************************************************
 DATASETS  * FILE   NREC   LENGTH (MB)   RECORD NAMES
              1      21     1287.57       500      610      700      900      950      970     1000      129      960     1100   
                                          VAR    BASINP    GEOM    SYMINP    ZMAT    AOBASIS   BASIS     P2S    ABASIS      S 
                                         1400     1410     1200     1210     1080     1600     1650     1300     1700     1380   
                                           T        V       H0       H01     AOSYM     SMH    MOLCAS    ERIS     OPER     JKOP   
                                         7000   
                                        PAPT AO    

              2       5        2.77       700     1000      520     2100     7000   
                                         GEOM     BASIS   MCVARS     RHF     PAPT   

 PROGRAMS   *        TOTAL      PAPT    HF-SCF       INT
 CPU TIMES  *       172.43     90.21     49.59     32.50
 REAL TIME  *       212.74 SEC
 DISK USED  *         5.05 GB
 **********************************************************************************************************************************


 PROGRAM * MP4 (Closed-shell)     Authors: C. Hampel, H.-J. Werner, 1991, M. Deegan, P.J. Knowles, 1992


 Convergence thresholds:  THRVAR = 1.00D-08  THRDEN = 1.00D-06

 MP4(T)     terms to be evaluated (factor= 0.000)


 Number of core orbitals:           5 (   5 )
 Number of closed-shell orbitals:  15 (  15 )
 Number of external orbitals:     214 ( 214 )

 Molecular orbitals read from record     7000.2  Type=PAPT/CANONICAL (state 1.1)

 Number of N-1 electron functions:              15
 Number of N-2 electron functions:             120
 Number of singly external CSFs:              3210
 Number of doubly external CSFs:           5153655
 Total number of CSFs:                     5156866

 Length of J-op  integral file:               0.00 MB
 Length of K-op  integral file:               3.82 MB

 Memory could be reduced to 184.50 Mwords without degradation in triples

 Integral transformation finished. Total CPU:  25.63 sec, npass=  1  Memory used: 114.93 MW
 Orbital energies read from record       7000.2  Type=PAPT/CANONICAL (state 1.1)

 Reference energy:                   -266.94611634

                        CORR.ENERGY   TOTAL ENERGY   ENERGY CHANGE
 MP2:                   -1.00453403  -267.95065037    -1.00453403

 SCS-MP2 correlation energy:           -0.99644303   (PS=  1.200000  PT=  0.333333)
 SCS-MP2 total energy:               -267.94255936

 MP3(D):                -1.00481440  -267.95093073    -0.00028036
 MP4(DQ):               -0.99419048  -267.94030682     0.01062391
 MP4(SDQ):              -1.00319734  -267.94931367    -0.00900685

 Norm of t1 vector:      0.07907627      S-energy:    -0.00900685      T1 diagnostic:  0.01020870

 Largest off-diagonal element in interal  block of Fock matrix:  0.11D+00
 Largest off-diagonal element in external block of Fock matrix:  0.35D+00


 Total CPU time for triples:   1055.46 sec


 RESULTS
 =======

  Reference energy                   -266.946116336456
  MP4(SDQ) singlet pair energy         -0.664145403865
  MP4(SDQ) triplet pair energy         -0.330045077239
  MP4(SDQ) correlation energy          -1.003197335169

  Triples contribution                 -0.045457277536
  Total correlation energy             -1.048654612705

  MP4(SDQ) total energy              -267.949313671625
 !MP4(SDTQ) total energy             -267.994770949161

 Timing summary (sec):

 STEP                 CPU(USER)    SYS     CPU(TOT)    WALL
 Transformation         30.26      2.09     32.35     32.96
 CCSD iterations       237.63      0.62    238.25     66.18
 Triples              1055.46     23.40   1078.86   1130.02

 Program statistics:

 Available memory in ccsd:               805305448
 Min. memory needed in ccsd:              12856822
 Max. memory used in ccsd:                17534212
 Max. memory used in cckext:              13690114 ( 1 integral passes)



 **********************************************************************************************************************************
 DATASETS  * FILE   NREC   LENGTH (MB)   RECORD NAMES
              1      22     1850.97       500      610      700      900      950      970     1000      129      960     1100   
                                          VAR    BASINP    GEOM    SYMINP    ZMAT    AOBASIS   BASIS     P2S    ABASIS      S 
                                         1400     1410     1200     1210     1080     1600     1650     1300     1700     1380   
                                           T        V       H0       H01     AOSYM     SMH    MOLCAS    ERIS     OPER     JKOP   
                                         7000     1380(1)
                                        PAPT AO   JKOP   

              2       5        2.77       700     1000      520     2100     7000   
                                         GEOM     BASIS   MCVARS     RHF     PAPT   

 PROGRAMS   *        TOTAL       MP4      PAPT    HF-SCF       INT
 CPU TIMES  *      1323.08   1150.64     90.21     49.59     32.50
 REAL TIME  *      1442.02 SEC
 DISK USED  *         5.05 GB
 **********************************************************************************************************************************

 Dump information in style XML to xml output                                                                      

 Orbitals will not be exported.

 **********************************************************************************************************************************

 MP4/cc-pVTZ energy=   -267.994770949161

             MP4            PAPT          HF-SCF
   -267.99477095   -267.94148753   -266.94611634
 **********************************************************************************************************************************
 Molpro calculation terminated
