
 Working directory              : /home/jovyan/scratch/molpro.y1WohsVXkL/
 Global scratch directory       : /home/jovyan/scratch/molpro.y1WohsVXkL/
 Wavefunction directory         : /home/jovyan/wfu/
 Main file repository           : /home/jovyan/scratch/molpro.y1WohsVXkL/

 id        : cardiff

 Nodes                nprocs
 jupyter-c-2efrancisan    1
 GA implementation: MPI file
 GA implementation (serial work in mppx): MPI file

 Using customized tuning parameters: mindgm=1; mindgv=20; mindgc=4; mindgr=1; noblas=0; minvec=7
 default implementation of scratch files=df  


 Variables initialized (1031), CPU time= 0.00 sec
 
 
 
 geometry={
 9
    C   -1.10945416545954     -0.08792101937951     -0.08400821928685
    O   0.07032183607769      0.60924567607926      0.24765640205154
    C   1.23884107792212     -0.13666128914199     -0.00597520869361
    H   -1.94856188018356      0.55983585212066      0.16218640095003
    H   -1.14825112584013     -0.33319268053463     -1.15420716209030
    H   -1.19840018577541     -1.02152922518843      0.48579228504927
    H   2.08610111441292      0.47954047509783      0.28875360385842
    H   1.33396905213006     -0.39116033625816     -1.07028076112373
    H   1.25443427671585     -1.06815745279504      0.57408265928525
 }
 basis=cc-pVTZ
 angstrom
 
 
 hf; ccsd(t)
 
 
 
 {put,xml;noorbitals,nobasis}
 Commands initialized (841), CPU time= 0.01 sec, 704 directives.
 Default parameters read. Elapsed time= 0.10 sec

 Checking input...
 Passed
1


                                         ***  PROGRAM SYSTEM MOLPRO  ***
                                       Copyright, TTI GmbH Stuttgart, 2015
                                    Version 2023.1 linked Mon Jun  5 13:27:10 2023


 **********************************************************************************************************************************
 LABEL *                                                                                                                                                                 
  (16 PROC) 64 bit serial version                                                        DATE: 02-Aug-23          TIME: 15:44:21  
 **********************************************************************************************************************************

 SHA1:             9738a14712571edd23541b6d7c4f3a3d766f8287
 **********************************************************************************************************************************

 Memory per process:       805 MW
 Total memory per node:   1074 MW
 Total GA space:           268 MW

 GA preallocation disabled
 GA check enabled

 Geometry recognized as XYZ


 Variable memory set to 805.3 MW

 SETTING BASIS          =    CC-PVTZ


 Recomputing integrals since basis changed


 Using spherical harmonics

 Library entry C      S cc-pVTZ              selected for orbital group  1
 Library entry C      P cc-pVTZ              selected for orbital group  1
 Library entry C      D cc-pVTZ              selected for orbital group  1
 Library entry C      F cc-pVTZ              selected for orbital group  1
 Library entry O      S cc-pVTZ              selected for orbital group  2
 Library entry O      P cc-pVTZ              selected for orbital group  2
 Library entry O      D cc-pVTZ              selected for orbital group  2
 Library entry O      F cc-pVTZ              selected for orbital group  2
 Library entry H      S cc-pVTZ              selected for orbital group  4
 Library entry H      P cc-pVTZ              selected for orbital group  4
 Library entry H      D cc-pVTZ              selected for orbital group  4


 PROGRAM * SEWARD (Integral evaluation for generally contracted gaussian basis sets)     Author: Roland Lindh, 1990

 Geometry written to block  1 of record 700


 Point group  C1  



 ATOMIC COORDINATES

 NR  ATOM    CHARGE       X              Y              Z

   1  C       6.00   -2.096564521   -0.166146647   -0.158752527
   2  O       8.00    0.132889011    1.151307470    0.468002773
   3  C       6.00    2.341070349   -0.258252408   -0.011291508
   4  H       1.00   -3.682248290    1.057936435    0.306487879
   5  H       1.00   -2.169880150   -0.629642913   -2.181135427
   6  H       1.00   -2.264648139   -1.930410464    0.918014372
   7  H       1.00    3.942159775    0.906200164    0.545665229
   8  H       1.00    2.520836167   -0.739185906   -2.022537515
   9  H       1.00    2.370537224   -2.018525044    1.084858999

 Bond lengths in Bohr (Angstrom)

 1-2  2.664389350  1-4  2.056507001  1-5  2.076110924  1-6  2.073717886  2-3  2.663202374
     ( 1.409934125)     ( 1.088256639)     ( 1.098630588)     ( 1.097364247)     ( 1.409306004)

 3-7  2.056608360  3-8  2.075746439  3-9  2.073878970
     ( 1.088310276)     ( 1.098437711)     ( 1.097449489)

 Bond angles

  1-2-3  112.93908312   2-1-4  107.31671851   2-1-5  111.65930203   2-1-6  111.49122094

  2-3-7  107.28261231   2-3-8  111.64233618   2-3-9  111.46270424   4-1-5  109.02798522

  4-1-6  109.05257715   5-1-6  108.24058188   7-3-8  109.03592333   7-3-9  109.04926823

  8-3-9  108.31496787

 NUCLEAR CHARGE:                   26
 NUMBER OF PRIMITIVE AOS:         243
 NUMBER OF SYMMETRY AOS:          222
 NUMBER OF CONTRACTIONS:          174   (  174A   )
 NUMBER OF INNER CORE ORBITALS:     0   (    0A   )
 NUMBER OF OUTER CORE ORBITALS:     3   (    3A   )
 NUMBER OF VALENCE ORBITALS:       18   (   18A   )


 NUCLEAR REPULSION ENERGY   83.89014134


 Eigenvalues of metric

         1 0.119E-02 0.136E-02 0.146E-02 0.182E-02 0.183E-02 0.202E-02 0.219E-02 0.298E-02


 Contracted 2-electron integrals neglected if value below      1.0D-11
 AO integral compression algorithm  1   Integral accuracy      1.0D-11

     481.559 MB (compressed) written to integral file ( 47.1%)


 NUMBER OF SORTED TWO-ELECTRON INTEGRALS:  115907925.     BUFFER LENGTH:  32768
 NUMBER OF SEGMENTS:   8  SEGMENT LENGTH:   15999503      RECORD LENGTH: 524288

 Memory used in sort:      16.56 MW

 SORT1 READ   127738383. AND WROTE   109877066. INTEGRALS IN    319 RECORDS. CPU TIME:     1.54 SEC, REAL TIME:     2.64 SEC
 SORT2 READ   109877066. AND WROTE   115907925. INTEGRALS IN   1837 RECORDS. CPU TIME:     1.90 SEC, REAL TIME:     2.52 SEC

 FILE SIZES:   FILE 1:   512.8 MBYTE,  FILE 4:  1338.0 MBYTE,   TOTAL:   1850.9 MBYTE

 OPERATOR DM      FOR CENTER  0  COORDINATES:    0.000000    0.000000    0.000000


 **********************************************************************************************************************************
 DATASETS  * FILE   NREC   LENGTH (MB)   RECORD NAMES
              1      19      448.57       500      610      700      900      950      970     1000      129      960     1100   
                                          VAR    BASINP    GEOM    SYMINP    ZMAT    AOBASIS   BASIS     P2S    ABASIS      S 
                                         1400     1410     1200     1210     1080     1600     1650     1300     1700   
                                           T        V       H0       H01     AOSYM     SMH    MOLCAS    ERIS     OPER   

 PROGRAMS   *        TOTAL       INT
 CPU TIMES  *        11.14     11.00
 REAL TIME  *        15.00 SEC
 DISK USED  *         1.72 GB
 **********************************************************************************************************************************


 Program * Restricted Hartree-Fock

 Orbital guess generated from atomic densities. Full valence occupancy:   21

 Initial occupancy:  13

 NELEC=   26   SYM=1   MS2= 0   THRE=1.0D-08   THRD=3.2D-06   THRG=3.2D-06  HFMA2=F  DIIS_START=2   DIIS_MAX=10   DIIS_INCORE=F

 Level shifts:    0.00 (CLOSED)    0.00 (OPEN)    0.30 (GAP_MIN)

 ITER           ETOT              DE          GRAD        DDIFF     DIIS  NEXP   TIME(IT)  TIME(TOT)  DIAG
   1     -154.09009283    -154.09009283     0.00D+00     0.56D-01     0     0       1.24      2.46    start
   2     -154.12073453      -0.03064170     0.39D-02     0.43D-02     1     0       1.20      3.66    diag
   3     -154.12537017      -0.00463564     0.17D-02     0.15D-02     2     0       1.25      4.91    diag
   4     -154.12617253      -0.00080236     0.63D-03     0.57D-03     3     0       1.22      6.13    diag
   5     -154.12620071      -0.00002818     0.83D-04     0.13D-03     4     0       1.20      7.33    diag
   6     -154.12620185      -0.00000114     0.18D-04     0.31D-04     5     0       1.23      8.56    diag
   7     -154.12620191      -0.00000006     0.45D-05     0.79D-05     6     0       1.23      9.79    diag
   8     -154.12620192      -0.00000000     0.93D-06     0.15D-05     7     0       1.23     11.02    fixocc
   9     -154.12620192      -0.00000000     0.20D-06     0.26D-06     0     0       1.24     12.26    diag

 Final occupancy:  13

 !RHF STATE 1.1 Energy               -154.126201916672
  RHF One-electron energy            -375.595338718844
  RHF Two-electron energy             137.578995466273
  RHF Kinetic energy                  153.898909967138
  RHF Nuclear energy                   83.890141335900
  RHF Virial quotient                  -1.001476891224

 !RHF STATE 1.1 Dipole moment          -0.00460583    -0.51413611    -0.20692735
 Dipole moment /Debye                  -0.01170684    -1.30680365    -0.52595687

 Orbital energies:

           1.1          2.1          3.1          4.1          5.1          6.1          7.1          8.1          9.1         10.1
    -20.552384   -11.268126   -11.268035    -1.370260    -0.968047    -0.872005    -0.656449    -0.648596    -0.638720    -0.548843

          11.1         12.1         13.1         14.1         15.1
     -0.526421    -0.478659    -0.422135     0.141148     0.175995


 HOMO     13.1    -0.422135 =     -11.4869eV
 LUMO     14.1     0.141148 =       3.8408eV
 LUMO-HOMO         0.563282 =      15.3277eV

 Orbitals saved in record  2100.2


 **********************************************************************************************************************************
 DATASETS  * FILE   NREC   LENGTH (MB)   RECORD NAMES
              1      19      448.57       500      610      700      900      950      970     1000      129      960     1100   
                                          VAR    BASINP    GEOM    SYMINP    ZMAT    AOBASIS   BASIS     P2S    ABASIS      S 
                                         1400     1410     1200     1210     1080     1600     1650     1300     1700   
                                           T        V       H0       H01     AOSYM     SMH    MOLCAS    ERIS     OPER   

              2       4        1.00       700     1000      520     2100   
                                         GEOM     BASIS   MCVARS     RHF  

 PROGRAMS   *        TOTAL    HF-SCF       INT
 CPU TIMES  *        23.40     12.26     11.00
 REAL TIME  *        29.45 SEC
 DISK USED  *         1.72 GB
 **********************************************************************************************************************************


 PROGRAM * CCSD (Closed-shell coupled cluster)     Authors: C. Hampel, H.-J. Werner, 1991, M. Deegan, P.J. Knowles, 1992


 Convergence thresholds:  THRVAR = 1.00D-08  THRDEN = 1.00D-06

 CCSD(T)     terms to be evaluated (factor= 1.000)


 Number of core orbitals:           3 (   3 )
 Number of closed-shell orbitals:  10 (  10 )
 Number of external orbitals:     161 ( 161 )

 Molecular orbitals read from record     2100.2  Type=RHF/CANONICAL  

 Number of N-1 electron functions:              10
 Number of N-2 electron functions:              55
 Number of singly external CSFs:              1610
 Number of doubly external CSFs:           1296855
 Total number of CSFs:                     1298466

 Length of J-op  integral file:               0.00 MB
 Length of K-op  integral file:               2.14 MB
 Length of 3-ext integral record:             0.00 MB

 Memory could be reduced to 55.75 Mwords without degradation in triples

 Integral transformation finished. Total CPU:   5.25 sec, npass=  1  Memory used:  32.59 MW

 Reference energy:                   -154.12620192

 MP2 singlet pair energy:              -0.39594469
 MP2 triplet pair energy:              -0.20215007
 MP2 correlation energy:               -0.59809476
 MP2 total energy:                   -154.72429668

 SCS-MP2 correlation energy:           -0.60091589   (PS=  1.200000  PT=  0.333333)
 SCS-MP2 total energy:               -154.72711781

 ITER.      SQ.NORM     CORR.ENERGY   TOTAL ENERGY   ENERGY CHANGE        DEN1      VAR(S)    VAR(P)  DIIS     TIME  TIME/IT
   1      1.17585768    -0.62621530  -154.75241721    -0.02812054    -0.01230073  0.22D-02  0.29D-02  1  1    36.63     8.24
   2      1.18843701    -0.62803131  -154.75423323    -0.00181601    -0.01444788  0.27D-04  0.36D-03  2  2    44.39     8.33
   3      1.19252912    -0.62811498  -154.75431689    -0.00008367    -0.00265982  0.20D-04  0.17D-04  3  3    52.16     8.52
   4      1.19355824    -0.62809910  -154.75430102     0.00001587    -0.00050852  0.77D-06  0.18D-05  4  4    59.80     8.39
   5      1.19378292    -0.62810565  -154.75430757    -0.00000655    -0.00007331  0.31D-06  0.12D-06  5  5    67.39     8.32
   6      1.19383970    -0.62810080  -154.75430272     0.00000485    -0.00001358  0.40D-07  0.11D-07  6  6    75.17     8.30
   7      1.19385087    -0.62809982  -154.75430173     0.00000099    -0.00000114  0.51D-08  0.21D-08  6  2    82.95     8.30
   8      1.19385442    -0.62809963  -154.75430155     0.00000019    -0.00000006  0.80D-09  0.24D-09  6  1    90.68     8.27

 Norm of t1 vector:      0.06004924      S-energy:    -0.00000034      T1 diagnostic:  0.00949462
                                                                       D1 diagnostic:  0.02270962
                                                                       D2 diagnostic:  0.14108832 (internal)


 Total CPU time for triples:    114.25 sec


 RESULTS
 =======

  Reference energy                   -154.126201916672
  CCSD singlet pair energy             -0.443016743284
  CCSD triplet pair energy             -0.185082545572
  CCSD correlation energy              -0.628099630897

  Triples (T) contribution             -0.022363132993
  Total correlation energy             -0.650462763890

  CCSD total energy                  -154.754301547569
  CCSD[T] energy                     -154.777437336527
  CCSD-T energy                      -154.776265044670
 !CCSD(T) total energy               -154.776664680562

 Timing summary (sec):

 STEP                 CPU(USER)    SYS     CPU(TOT)    WALL
 Transformation          5.36      0.60      5.96     13.88
 CCSD iterations        85.43      2.33     87.76     66.33
 Triples               114.25      2.78    117.03    120.50

 Program statistics:

 Available memory in ccsd:               805305955
 Min. memory needed in ccsd:               3599928
 Max. memory used in ccsd:                 4724433
 Max. memory used in cckext:               3600368 ( 8 integral passes)



 **********************************************************************************************************************************
 DATASETS  * FILE   NREC   LENGTH (MB)   RECORD NAMES
              1      20      628.32       500      610      700      900      950      970     1000      129      960     1100   
                                          VAR    BASINP    GEOM    SYMINP    ZMAT    AOBASIS   BASIS     P2S    ABASIS      S 
                                         1400     1410     1200     1210     1080     1600     1650     1300     1700     1380   
                                           T        V       H0       H01     AOSYM     SMH    MOLCAS    ERIS     OPER     JKOP   

              2       4        1.00       700     1000      520     2100   
                                         GEOM     BASIS   MCVARS     RHF  

 PROGRAMS   *        TOTAL   CCSD(T)    HF-SCF       INT
 CPU TIMES  *       204.78    181.38     12.26     11.00
 REAL TIME  *       230.24 SEC
 DISK USED  *         1.72 GB
 **********************************************************************************************************************************

 Dump information in style XML to xml output                                                                      

 Orbitals will not be exported.

 **********************************************************************************************************************************

 CCSD(T)/cc-pVTZ energy=   -154.776664680562

         CCSD(T)          HF-SCF
   -154.77666468   -154.12620192
 **********************************************************************************************************************************
 Molpro calculation terminated
