
 Working directory              : /home/jovyan/scratch/molpro.PLY8J26qkc/
 Global scratch directory       : /home/jovyan/scratch/molpro.PLY8J26qkc/
 Wavefunction directory         : /home/jovyan/wfu/
 Main file repository           : /home/jovyan/scratch/molpro.PLY8J26qkc/

 id        : cardiff

 Nodes                nprocs
 jupyter-c-2efrancisan    1
 GA implementation: MPI file
 GA implementation (serial work in mppx): MPI file

 Using customized tuning parameters: mindgm=1; mindgv=20; mindgc=4; mindgr=1; noblas=0; minvec=7
 default implementation of scratch files=df  


 Variables initialized (1031), CPU time= 0.01 sec
 
 
 
 geometry={
           12
     C          1.27609040     -0.77327344      0.00000000
     C          1.23134723      0.58905339      0.00000000
     C         -1.18192378      1.07324973      0.00000000
     N         -1.49435191     -0.19905547      0.00000000
     C         -1.06638519     -1.33840171      0.00000000
     H          1.42015815     -1.33084885     -0.91708935
     H          1.42015815     -1.33084885      0.91708935
     H          1.34536200      1.15022023     -0.91956788
     H          1.34536200      1.15022023      0.91956788
     H         -1.30031450      1.61932430      0.92900354
     H         -1.30031450      1.61932430     -0.92900354
     H         -1.69518802     -2.22896383      0.00000000
 }
 basis=cc-pVDZ
 angstrom
 
 
 hf; ccsd
 
 
 
 {put,xml;noorbitals,nobasis}
 Commands initialized (841), CPU time= 0.01 sec, 704 directives.
 Default parameters read. Elapsed time= 0.09 sec

 Checking input...
 Passed
1


                                         ***  PROGRAM SYSTEM MOLPRO  ***
                                       Copyright, TTI GmbH Stuttgart, 2015
                                    Version 2023.1 linked Mon Jun  5 13:27:10 2023


 **********************************************************************************************************************************
 LABEL *                                                                                                                                                                 
  (16 PROC) 64 bit serial version                                                        DATE: 03-Aug-23          TIME: 11:31:05  
 **********************************************************************************************************************************

 SHA1:             9738a14712571edd23541b6d7c4f3a3d766f8287
 **********************************************************************************************************************************

 Memory per process:       805 MW
 Total memory per node:   1074 MW
 Total GA space:           268 MW

 GA preallocation disabled
 GA check enabled

 Geometry recognized as XYZ


 Variable memory set to 805.3 MW

 SETTING BASIS          =    CC-PVDZ


 Recomputing integrals since basis changed


 Using spherical harmonics

 Library entry C      S cc-pVDZ              selected for orbital group  1
 Library entry C      P cc-pVDZ              selected for orbital group  1
 Library entry C      D cc-pVDZ              selected for orbital group  1
 Library entry N      S cc-pVDZ              selected for orbital group  2
 Library entry N      P cc-pVDZ              selected for orbital group  2
 Library entry N      D cc-pVDZ              selected for orbital group  2
 Library entry H      S cc-pVDZ              selected for orbital group  4
 Library entry H      P cc-pVDZ              selected for orbital group  4


 PROGRAM * SEWARD (Integral evaluation for generally contracted gaussian basis sets)     Author: Roland Lindh, 1990

 Geometry written to block  1 of record 700


 Point group  Cs  



 ATOMIC COORDINATES

 NR  ATOM    CHARGE       X              Y              Z

   1  C       6.00    2.411461366   -1.461275021    0.000000000
   2  C       6.00    2.326909029    1.113149580    0.000000000
   3  C       6.00   -2.233512244    2.028148053    0.000000000
   4  N       7.00   -2.823915844   -0.376160322    0.000000000
   5  C       6.00   -2.015175952   -2.529212677    0.000000000
   6  H       1.00    2.683709957   -2.514939840   -1.733047703
   7  H       1.00    2.683709957   -2.514939840    1.733047703
   8  H       1.00    2.542365718    2.173601218   -1.737731446
   9  H       1.00    2.542365718    2.173601218    1.737731446
  10  H       1.00   -2.457238281    3.060079434    1.755562259
  11  H       1.00   -2.457238281    3.060079434   -1.755562259
  12  H       1.00   -3.203441088   -4.212131180    0.000000000

 Bond lengths in Bohr (Angstrom)

 1-2  2.575812711  1-6  2.046407385  1-7  2.046407385  2-8  2.047117447  2-9  2.047117447
     ( 1.363061386)     ( 1.082912153)     ( 1.082912153)     ( 1.083287901)     ( 1.083287901)

  3- 4  2.475737299   3-10  2.048642126   3-11  2.048642126   4- 5  2.299933619   5-12  2.060142889
       ( 1.310103759)       ( 1.084094726)       ( 1.084094726)       ( 1.217072458)       ( 1.090180668)

 Bond angles

  1-2-8  120.94986755   1-2-9  120.94986755   2-1-6  121.26350260   2-1-7  121.26350260

  3- 4- 5  145.61597334   4- 3-10  117.58982266   4- 3-11  117.58982266   4- 5-12  124.18765139

  6- 1- 7  115.74639928   8- 2- 9  116.17740812  10- 3-11  117.94932410

 NUCLEAR CHARGE:                   38
 NUMBER OF PRIMITIVE AOS:         184
 NUMBER OF SYMMETRY AOS:          179
 NUMBER OF CONTRACTIONS:          105   (   69A'  +   36A"  )
 NUMBER OF INNER CORE ORBITALS:     0   (    0A'  +    0A"  )
 NUMBER OF OUTER CORE ORBITALS:     5   (    5A'  +    0A"  )
 NUMBER OF VALENCE ORBITALS:       27   (   19A'  +    8A"  )


 NUCLEAR REPULSION ENERGY  157.98626806


 Eigenvalues of metric

         1 0.276E-02 0.568E-02 0.768E-02 0.136E-01 0.160E-01 0.212E-01 0.278E-01 0.319E-01
         2 0.150E-01 0.270E-01 0.311E-01 0.361E-01 0.396E-01 0.632E-01 0.102E+00 0.103E+00


 Contracted 2-electron integrals neglected if value below      1.0D-11
 AO integral compression algorithm  1   Integral accuracy      1.0D-11

     36.176 MB (compressed) written to integral file ( 51.0%)


 NUMBER OF SORTED TWO-ELECTRON INTEGRALS:    7964601.     BUFFER LENGTH:  32768
 NUMBER OF SEGMENTS:   1  SEGMENT LENGTH:    7964601      RECORD LENGTH: 524288

 Memory used in sort:       8.52 MW

 SORT1 READ     8842738. AND WROTE     7793009. INTEGRALS IN     23 RECORDS. CPU TIME:     0.13 SEC, REAL TIME:     0.25 SEC
 SORT2 READ     7793009. AND WROTE     7964601. INTEGRALS IN    138 RECORDS. CPU TIME:     0.22 SEC, REAL TIME:     0.26 SEC

 FILE SIZES:   FILE 1:    66.7 MBYTE,  FILE 4:    96.5 MBYTE,   TOTAL:    163.2 MBYTE

 OPERATOR DM      FOR CENTER  0  COORDINATES:    0.000000    0.000000    0.000000


 **********************************************************************************************************************************
 DATASETS  * FILE   NREC   LENGTH (MB)   RECORD NAMES
              1      19       59.91       500      610      700      900      950      970     1000      129      960     1100   
                                          VAR    BASINP    GEOM    SYMINP    ZMAT    AOBASIS   BASIS     P2S    ABASIS      S 
                                         1400     1410     1200     1210     1080     1600     1650     1300     1700   
                                           T        V       H0       H01     AOSYM     SMH    MOLCAS    ERIS     OPER   

 PROGRAMS   *        TOTAL       INT
 CPU TIMES  *         2.69      2.56
 REAL TIME  *         4.13 SEC
 DISK USED  *       156.17 MB
 **********************************************************************************************************************************


 Program * Restricted Hartree-Fock

 Orbital guess generated from atomic densities. Full valence occupancy:   24   8

 Initial occupancy:  15   4

 NELEC=   38   SYM=1   MS2= 0   THRE=1.0D-08   THRD=3.2D-06   THRG=3.2D-06  HFMA2=F  DIIS_START=2   DIIS_MAX=10   DIIS_INCORE=F

 Level shifts:    0.00 (CLOSED)    0.00 (OPEN)    0.30 (GAP_MIN)

 ITER           ETOT              DE          GRAD        DDIFF     DIIS  NEXP   TIME(IT)  TIME(TOT)  DIAG
   1     -209.75877715    -209.75877715     0.00D+00     0.14D+00     0     0       0.06      0.12    start
   2     -209.81488999      -0.05611284     0.66D-02     0.16D-01     1     0       0.06      0.18    diag
   3     -209.82893321      -0.01404322     0.36D-02     0.63D-02     2     0       0.06      0.24    diag
   4     -209.83148056      -0.00254734     0.95D-03     0.25D-02     3     0       0.06      0.30    diag
   5     -209.83196637      -0.00048582     0.44D-03     0.86D-03     4     0       0.07      0.37    diag
   6     -209.83236396      -0.00039758     0.24D-03     0.11D-02     5     0       0.06      0.43    diag
   7     -209.83243490      -0.00007094     0.11D-03     0.52D-03     6     0       0.07      0.50    diag
   8     -209.83244740      -0.00001251     0.61D-04     0.26D-03     7     0       0.06      0.56    fixocc
   9     -209.83244769      -0.00000028     0.12D-04     0.32D-04     8     0       0.07      0.63    diag
  10     -209.83244771      -0.00000002     0.30D-05     0.88D-05     9     0       0.07      0.70    diag/orth
  11     -209.83244771      -0.00000000     0.10D-05     0.29D-05     9     0       0.06      0.76    diag
  12     -209.83244771      -0.00000000     0.38D-06     0.91D-06     0     0       0.06      0.82    diag

 Final occupancy:  15   4

 !RHF STATE 1.1 Energy               -209.832447711623
  RHF One-electron energy            -595.596977563813
  RHF Two-electron energy             227.778261789032
  RHF Kinetic energy                  209.499178196471
  RHF Nuclear energy                  157.986268063159
  RHF Virial quotient                  -1.001590791515

 !RHF STATE 1.1 Dipole moment          -0.54333848     0.08977915     0.00000000
 Dipole moment /Debye                  -1.38102867     0.22819584     0.00000000

 Orbital energies:

           1.1          2.1          3.1          4.1          5.1          6.1          7.1          8.1          9.1         10.1
    -15.618400   -11.289309   -11.278037   -11.223331   -11.206478    -1.277151    -1.004009    -0.996722    -0.774073    -0.751424

          11.1         12.1         13.1         14.1         15.1         16.1         17.1
     -0.661243    -0.572291    -0.555608    -0.325263    -0.295906     0.128120     0.189761

           1.2          2.2          3.2          4.2          5.2          6.2
     -0.647696    -0.608647    -0.485470    -0.449188     0.157604     0.248994


 HOMO     15.1    -0.295906 =      -8.0520eV
 LUMO     16.1     0.128120 =       3.4863eV
 LUMO-HOMO         0.424027 =      11.5384eV

 Orbitals saved in record  2100.2


 **********************************************************************************************************************************
 DATASETS  * FILE   NREC   LENGTH (MB)   RECORD NAMES
              1      19       59.91       500      610      700      900      950      970     1000      129      960     1100   
                                          VAR    BASINP    GEOM    SYMINP    ZMAT    AOBASIS   BASIS     P2S    ABASIS      S 
                                         1400     1410     1200     1210     1080     1600     1650     1300     1700   
                                           T        V       H0       H01     AOSYM     SMH    MOLCAS    ERIS     OPER   

              2       4        0.67       700     1000      520     2100   
                                         GEOM     BASIS   MCVARS     RHF  

 PROGRAMS   *        TOTAL    HF-SCF       INT
 CPU TIMES  *         3.51      0.82      2.56
 REAL TIME  *         5.09 SEC
 DISK USED  *       156.17 MB
 **********************************************************************************************************************************


 PROGRAM * CCSD (Closed-shell coupled cluster)     Authors: C. Hampel, H.-J. Werner, 1991, M. Deegan, P.J. Knowles, 1992


 Convergence thresholds:  THRVAR = 1.00D-08  THRDEN = 1.00D-06

 Number of core orbitals:           5 (   5   0 )
 Number of closed-shell orbitals:  14 (  10   4 )
 Number of external orbitals:      86 (  54  32 )

 Molecular orbitals read from record     2100.2  Type=RHF/CANONICAL  

 Number of N-1 electron functions:              14
 Number of N-2 electron functions:             105
 Number of singly external CSFs:               668
 Number of doubly external CSFs:            367362
 Total number of CSFs:                      368031

 Length of J-op  integral file:               0.00 MB
 Length of K-op  integral file:               0.48 MB
 Length of 3-ext integral record:             0.00 MB

 Integral transformation finished. Total CPU:   0.40 sec, npass=  1  Memory used:   3.15 MW

 Reference energy:                   -209.83244771

 MP2 singlet pair energy:              -0.46311003
 MP2 triplet pair energy:              -0.27869361
 MP2 correlation energy:               -0.74180364
 MP2 total energy:                   -210.57425135

 SCS-MP2 correlation energy:           -0.72914140   (PS=  1.200000  PT=  0.333333)
 SCS-MP2 total energy:               -210.56158911

 ITER.      SQ.NORM     CORR.ENERGY   TOTAL ENERGY   ENERGY CHANGE        DEN1      VAR(S)    VAR(P)  DIIS     TIME  TIME/IT
   1      1.29710208    -0.77552913  -210.60797685    -0.03372549    -0.00738527  0.64D-02  0.73D-02  1  1     5.17     1.02
   2      1.32694614    -0.78041013  -210.61285785    -0.00488100    -0.02387246  0.22D-03  0.12D-02  2  2     6.16     1.04
   3      1.34214064    -0.78114689  -210.61359460    -0.00073676    -0.00577469  0.27D-03  0.94D-04  3  3     7.17     1.05
   4      1.35019566    -0.78140979  -210.61385750    -0.00026290    -0.00174101  0.46D-04  0.22D-04  4  4     8.16     1.06
   5      1.35483952    -0.78147591  -210.61392362    -0.00006612    -0.00068850  0.14D-04  0.27D-05  5  5     9.18     1.06
   6      1.35665578    -0.78144774  -210.61389545     0.00002817    -0.00014309  0.16D-05  0.68D-06  6  6    10.18     1.06
   7      1.35728620    -0.78144631  -210.61389402     0.00000142    -0.00002951  0.22D-06  0.13D-06  6  2    11.21     1.06
   8      1.35742007    -0.78144406  -210.61389177     0.00000225    -0.00000423  0.22D-07  0.16D-07  6  1    12.21     1.07
   9      1.35747471    -0.78144239  -210.61389011     0.00000167    -0.00000368  0.51D-08  0.21D-08  6  3    13.24     1.07
  10      1.35746547    -0.78144288  -210.61389059    -0.00000049     0.00000308  0.10D-08  0.49D-09  6  5    14.25     1.07
  11      1.35747127    -0.78144289  -210.61389060    -0.00000001     0.00000020  0.28D-09  0.10D-09  6  4    15.26     1.07

 Norm of t1 vector:      0.15058628      S-energy:     0.00000023      T1 diagnostic:  0.02012294
                                                                       D1 diagnostic:  0.07555980
                                                                       D2 diagnostic:  0.20925642 (external, symmetry=1)

 Singles amplitudes (print threshold =  0.500E-01):

         I         SYM. A    A   T(IA)

        10         1         1     -0.06334724

 Doubles amplitudes (print threshold =  0.500E-01):

         I         J         SYM. A    SYM. B    A         B      T(IJ, AB)

         9         9         1         1         3         3     -0.07673939
        10        10         1         1         1         1     -0.11319445
        14        14         2         2         1         1     -0.06778034


 RESULTS
 =======

  Reference energy                   -209.832447711623
  CCSD singlet pair energy             -0.536405063448
  CCSD triplet pair energy             -0.245038062317
  CCSD correlation energy              -0.781442892683

 !CCSD total energy                  -210.613890604306

 Timing summary (sec):

 STEP                 CPU(USER)    SYS     CPU(TOT)    WALL
 Transformation          0.42      0.10      0.52      0.77
 CCSD iterations        14.88      0.54     15.42     11.79

 Program statistics:

 Available memory in ccsd:               805305569
 Min. memory needed in ccsd:               1012507
 Max. memory used in ccsd:                 1327073
 Max. memory used in cckext:               1430672 (11 integral passes)



 **********************************************************************************************************************************
 DATASETS  * FILE   NREC   LENGTH (MB)   RECORD NAMES
              1      20       84.14       500      610      700      900      950      970     1000      129      960     1100   
                                          VAR    BASINP    GEOM    SYMINP    ZMAT    AOBASIS   BASIS     P2S    ABASIS      S 
                                         1400     1410     1200     1210     1080     1600     1650     1300     1700     1380   
                                           T        V       H0       H01     AOSYM     SMH    MOLCAS    ERIS     OPER     JKOP   

              2       4        0.67       700     1000      520     2100   
                                         GEOM     BASIS   MCVARS     RHF  

 PROGRAMS   *        TOTAL      CCSD    HF-SCF       INT
 CPU TIMES  *        15.09     11.57      0.82      2.56
 REAL TIME  *        17.70 SEC
 DISK USED  *       156.17 MB
 **********************************************************************************************************************************

 Dump information in style XML to xml output                                                                      

 Orbitals will not be exported.

 **********************************************************************************************************************************

 CCSD/cc-pVDZ energy=   -210.613890604306

            CCSD          HF-SCF
   -210.61389060   -209.83244771
 **********************************************************************************************************************************
 Molpro calculation terminated
